LAMMPS data file via write_data, version 2 Aug 2023, timestep = 100000, units = real

1491 atoms
5 atom types
686 bonds
1 bond types
343 angles
1 angle types

-12.120000000000001 12.120000000000001 xlo xhi
-12.120000000000001 12.120000000000001 ylo yhi
-28.28 28.28 zlo zhi

Masses

1 15.9994
2 1.008
3 28.99
4 35.453
5 26.9815

Pair Coeffs # lj/cut/tip4p/long

1 0.185199 3.1589
2 0 0
3 0.0469 2.4299
4 0.15 4.0447
5 11.697 2.574

Bond Coeffs # harmonic

1 0 0.9572

Angle Coeffs # harmonic

1 0 104.52

Atoms # full

478 16 1 -1.1128 -8.665420459177092 -10.45717113841042 -6.42000892396172 0 0 0
86 0 5 0 -10.794811479357609 -10.061589246801386 -8.95543012561863 0 0 0
484 18 1 -1.1128 -7.016850821380157 -8.119141545482822 -6.634433647046927 0 0 0
451 7 1 -1.1128 -10.566558192342466 -8.204337427240901 -6.445101494739364 1 0 0
544 38 1 -1.1128 -9.006503231361961 -5.98308796719784 -6.593264483000211 0 0 0
545 38 2 0.5564 -9.705106294897929 -5.3344240662369184 -6.679163951918893 0 0 0
452 7 2 0.5564 -10.345004761570149 -9.073186829029888 -6.780154209310487 1 0 0
453 7 2 0.5564 -10.42464563605472 -8.267991850012109 -5.500617735087642 1 0 0
480 16 2 0.5564 -8.284339255724378 -9.587469584978713 -6.298963384118246 0 0 0
485 18 2 0.5564 -7.158077442025973 -7.370419960923878 -7.2138250319501775 0 0 0
479 16 2 0.5564 -7.9112846224125315 -11.036498844109262 -6.529266298600289 0 0 0
546 38 2 0.5564 -9.448621568838895 -6.826392455472123 -6.691114290437666 0 0 0
486 18 2 0.5564 -6.829505508775977 -7.729682648856506 -5.780344387162475 0 0 0
1153 241 1 -1.1128 -6.960436913544414 -4.085824791758909 -6.525866817367623 0 0 0
1045 205 1 -1.1128 -11.092272422706753 -4.241416207735634 -6.678112659373437 0 0 0
1154 241 2 0.5564 -7.288540574693291 -3.6835986473159728 -7.330089305909362 0 0 0
1155 241 2 0.5564 -7.535129748932804 -4.837587158634722 -6.381722704083192 0 0 0
1047 205 2 0.5564 -11.670614813754314 -5.003306561372934 -6.713314986301289 0 0 0
1046 205 2 0.5564 -11.683406329463647 -3.496011875240369 -6.572622856886696 0 0 0
291 0 5 0 -8.93912365924364 -4.025876982436792 -9.007374191051476 0 0 0
100 0 5 0 -6.841120329418426 -5.951758962544072 -8.82806007207717 0 0 0
99 0 5 0 -8.77962191579514 -7.992994511623597 -8.960072504024609 0 0 0
88 0 5 0 -6.733907644012353 -10.126672557571993 -8.948085861966547 0 0 0
98 0 5 0 -10.852786939762433 -6.033072901931707 -9.056639867705444 0 0 0
55 0 5 0 -6.8007694585310725 -8.053207350715367 -10.91811162647695 0 0 0
56 0 5 0 -8.690510328031761 -5.966635359216136 -10.973117478744362 0 0 0
219 0 5 0 -10.87646148513023 -3.9448558422550475 -11.024729665368062 0 0 0
223 0 5 0 -6.786906407737087 -4.0105650280286715 -10.937138096609223 0 0 0
32 0 5 0 -8.77795618541858 -10.12299194000738 -10.999967585734899 0 0 0
51 0 5 0 -10.693663809662771 -8.110719297804135 -11.094200124581606 0 0 0
30 0 5 0 -6.824288445653129 -10.106263715337361 -13.027314638624253 0 0 0
222 0 5 0 -6.768056878472982 -2.0206431035071346 -12.94757099039958 0 0 0
218 0 5 0 -10.788662145137994 -1.8383856542499126 -13.106492351448034 0 0 0
292 0 5 0 -6.875433898638439 -1.9803355288752826 -8.936085218402702 0 0 0
221 0 5 0 -8.897290466029192 -3.988688390249549 -12.988629812988187 0 0 0
224 0 5 0 -8.818629506270863 -1.9211473710119904 -11.042238241646182 0 0 0
290 0 5 0 -10.885758928527636 -1.9643151703344528 -9.005732215748031 0 0 0
50 0 5 0 -10.783433914356637 -6.012518013519536 -13.11200935415577 0 0 0
54 0 5 0 -6.846912567182787 -5.97550921673994 -13.055079239776358 0 0 0
53 0 5 0 -8.697774105084598 -8.034462813671382 -13.053936812373237 0 0 0
26 0 5 0 -10.769949415515983 -10.044424510803992 -13.11657995330086 0 0 0
36 0 5 0 -4.776711482532557 -10.182736870883229 -10.979047947103622 0 0 0
547 39 1 -1.1128 -4.898569071674421 -6.000810137528597 -6.5253142428079345 0 0 0
101 0 5 0 -4.756731437635841 -8.127913473983105 -8.997562092782237 0 0 0
60 0 5 0 -4.904071365107342 -6.0229380137586865 -10.967607814529572 0 0 0
225 0 5 0 -4.820500691824239 -4.0293075234227 -13.005545175150854 0 0 0
57 0 5 0 -4.769878497775853 -8.00714721554782 -12.911592352268872 0 0 0
1048 206 1 -1.1128 -9.175543098178593 -2.170480530292881 -6.490645753630594 0 0 0
964 178 1 -1.1128 -4.901545743060584 -2.164054244801333 -6.186582244685337 0 0 0
228 0 5 0 -4.744568679376574 -2.0218919627853036 -10.909499322877895 0 0 0
293 0 5 0 -4.80571229577821 -4.026182165128548 -8.927370133507146 0 0 0
1050 206 2 0.5564 -9.729339620181461 -2.9342873284699595 -6.652222351309551 0 0 0
1049 206 2 0.5564 -9.738440977969624 -1.4207389477745156 -6.683599263654689 0 0 0
991 187 1 -1.1128 -4.54407607688148 -9.974405692438413 -6.2982280113069065 1 0 0
548 39 2 0.5564 -5.684377966938917 -5.457420197556158 -6.58376235291901 0 0 0
992 187 2 0.5564 -5.280389195057928 -9.69570938136041 -6.842615684223059 1 0 0
1265 278 2 0.5564 -6.428054832857302 -5.937401057118291 -4.519416856044438 4 0 0
1266 278 2 0.5564 -7.8643905692724685 -6.1622692382181095 -4.097198293633978 4 0 0
1264 278 1 -1.1128 -7.0656410657362105 -6.629131939634973 -4.342597957441997 4 0 0
1082 217 2 0.5564 -5.536063159076408 -1.1113021193799772 -2.01793318809445 4 0 0
542 37 2 0.5564 -11.552750683566368 -11.169981456264178 -6.814663877237517 0 0 0
1263 277 2 0.5564 -10.40261225067138 -0.6234246067925643 -2.615809728448635 4 0 0
705 91 2 0.5564 -4.611385808577435 -9.492688457391719 -3.074758595569703 4 0 0
704 91 2 0.5564 -4.19484469656446 -10.179372422079203 -4.358056201334765 4 0 0
703 91 1 -1.1128 -4.084270228407182 -10.21880186288866 -3.4080858294203087 4 0 0
683 84 2 0.5564 -4.7000215785739545 -4.963244071669354 -3.998230904801755 5 0 0
1118 229 2 0.5564 -8.671697351920145 -4.180838581843273 -3.333242843963025 3 0 0
682 84 1 -1.1128 -5.40822570786618 -4.492645244652581 -3.558618597442396 5 0 0
684 84 2 0.5564 -5.493658320138182 -4.926269648080859 -2.7095616339533755 5 0 0
1117 229 1 -1.1128 -8.966803907219557 -5.046025801650478 -3.0493183856543458 3 0 0
900 156 2 0.5564 -6.3181751939893065 -1.211139966592619 -6.322377012166427 0 0 0
1119 229 2 0.5564 -9.883860070701136 -5.087695289581264 -3.3203289716487774 3 0 0
780 116 2 0.5564 -6.111219819125219 -7.553458355057537 -3.248229269871382 4 0 0
1239 269 2 0.5564 -5.541617230616874 -1.4364982540559457 -4.552346588087884 3 0 0
779 116 2 0.5564 -6.275663078892702 -8.584206151199261 -2.1516835313864857 4 0 0
1063 211 1 -1.1128 -5.193306275629392 -5.695642038511669 -1.1784413131360831 3 0 0
1022 197 2 0.5564 -8.68127763775366 -2.551990917581992 -4.64706745286215 4 1 0
778 116 1 -1.1128 -5.611681979402689 -8.132145838549784 -2.6722227087822596 4 0 0
1065 211 2 0.5564 -5.3803304586048215 -6.626493049350315 -1.2999259838100878 3 0 0
1023 197 2 0.5564 -9.152945062330206 -2.3674917050571938 -3.220397325967928 4 1 0
1021 197 1 -1.1128 -8.365269234674132 -2.513051912181886 -3.744385158770671 4 1 0
1237 269 1 -1.1128 -6.0388835623993895 -1.163104101854918 -3.7814737241336718 3 0 0
966 178 2 0.5564 -5.300801617619876 -3.0158815396748078 -6.009967065080571 0 0 0
1083 217 2 0.5564 -5.422598901617566 -1.7224194271749274 -0.6375142100432687 4 0 0
87 0 5 0 -8.891162837082858 -12.118941587083247 -9.132440536404989 0 0 0
775 115 1 -1.1128 -7.114968413161967 -10.038483753141696 -1.2973103868747649 4 0 0
1081 217 1 -1.1128 -4.94162078382894 -1.1910668416142711 -1.2719639511469547 4 0 0
716 95 2 0.5564 -1.708749518591373 -10.434712244011651 -1.216831923541064 4 0 0
983 184 2 0.5564 -11.918722798782769 -1.0854495400774857 -6.385038071323117 0 0 0
85 0 5 0 11.295228227913958 -11.9895933737666 -9.13705177543557 -1 0 0
1101 223 2 0.5564 -8.70219846513198 -7.367739778424281 -0.7431898652640346 4 0 0
776 115 2 0.5564 -6.83166930441846 -9.419299899338656 -0.6245523492698482 4 0 0
35 0 5 0 -2.8003593574633645 -12.082192177322051 -11.01325869061699 0 0 0
27 0 5 0 -10.860418375070822 -12.047144157340165 -11.05814043674413 0 0 0
463 11 1 -1.1128 5.394040463059898 -11.99094590069662 -6.7799314691327615 0 0 0
993 187 2 0.5564 -3.8446728127080725 -9.35437957004613 -6.504816400246785 1 0 0
717 95 2 0.5564 -2.466938750781599 -10.045099243206229 -2.467930460809207 4 0 0
1343 304 2 0.5564 9.249185052648148 -10.694944674622006 -0.5117158995645045 1 1 0
1238 269 2 0.5564 -6.850286381794694 -1.6687558075737352 -3.8275454135764218 3 0 0
611 60 2 0.5564 -9.092575261142505 -4.326680467383003 -1.0835339689293326 4 0 0
872 147 2 0.5564 -5.8707935990957285 -4.0987072309575545 -0.29320978382246315 5 0 0
1064 211 2 0.5564 -4.2446659554618265 -5.655334468122164 -1.0570024607026431 3 0 0
661 77 1 -1.1128 -11.727345407641309 -5.2982165580731015 -3.590474738954611 4 0 0
715 95 1 -1.1128 -1.79581929392826 -9.73235977557822 -1.8613140454411647 4 0 0
517 29 1 -1.1128 9.511564555492916 -12.05859597944491 -6.771137659127596 -1 0 0
777 115 2 0.5564 -7.7712977597157495 -10.582350467735223 -0.861843676737768 4 0 0
555 41 2 0.5564 -9.227959530182602 -8.245357207321856 -3.1014700276750875 4 0 0
1133 234 2 0.5564 5.94828929563945 -0.2577767734153811 -3.4755534602031064 3 0 0
965 178 2 0.5564 -4.1782073115128675 -2.3570976040294083 -6.783065647282292 0 0 0
247 0 5 0 -6.761616187172596 -0.0021343938888787667 -10.921536872035984 0 0 0
518 29 2 0.5564 9.520956652883598 -11.66918904029121 -5.896777048471866 -1 0 0
963 177 2 0.5564 -11.971554202503453 -6.989142036585203 -6.402397601147788 0 0 0
1100 223 2 0.5564 -8.486180546287814 -6.641496100343935 -2.0538393641863792 4 0 0
626 65 2 0.5564 11.937362481787657 -11.28544003993988 -0.7147318570825992 3 0 0
636 68 2 0.5564 1.0087471381928237 -1.6282528818106827 -0.2011979748803191 4 -1 0
908 159 2 0.5564 0.8258512105677969 -0.29149430356902306 -6.516256039551966 0 0 0
1099 223 1 -1.1128 -8.46402620874393 -7.513099730153812 -1.6588109604489663 4 0 0
678 82 2 0.5564 -8.065565535392787 -10.699330469358065 -3.0076621974302453 4 0 0
677 82 2 0.5564 -8.729147943425977 -10.670082623803168 -4.368066093278127 4 0 0
543 37 2 0.5564 -10.111727920061018 -11.365445796529947 -6.393780462250789 0 0 0
590 53 2 0.5564 1.3935579077730638 -11.84584457119878 -1.8380561723343332 4 0 0
610 60 1 -1.1128 -8.853257092639032 -3.884805414137738 -0.2688619456853773 4 0 0
47 0 5 0 9.300147009579707 -12.11003985166212 -11.145542550698675 0 0 0
1243 271 1 -1.1128 -2.4406971694173936 -2.879055914696962 -0.10645822443143926 3 0 0
534 34 2 0.5564 2.9747992121363387 -0.5362235637529906 -3.2749756082859722 4 0 0
1217 262 2 0.5564 -3.478778157560379 -1.8695007918197857 -2.4452099343710874 2 0 0
494 21 2 0.5564 9.892289484858448 -3.666824228258574 -5.812952435692901 0 0 0
1216 262 1 -1.1128 -2.99406053658042 -2.3244009247850634 -3.133916318711459 2 0 0
1218 262 2 0.5564 -3.6715102556499954 -2.6961876991688856 -3.698740222619177 2 0 0
37 0 5 0 -0.792700603194107 -12.022400211388286 -12.977582486810347 0 0 0
676 82 1 -1.1128 -8.595629392162785 -11.229441100087598 -3.6028766649307116 4 0 0
899 156 2 0.5564 -7.8021216298778215 -0.9435925120122293 -6.457349270894169 0 0 0
1308 292 2 0.5564 0.769759912613309 -4.496517175750904 -0.17304635260319853 4 0 0
1129 233 1 -1.1128 4.452469830304912 -10.849099838006888 -0.6705040048579899 3 0 0
549 39 2 0.5564 -4.174688562501555 -5.374761330631626 -6.506946073814449 0 0 0
591 53 2 0.5564 0.7120668711013164 -11.108290051412537 -2.97096374874769 4 0 0
298 0 5 0 5.32866770267693 -2.0258695245723612 -8.909365495063442 0 0 0
643 71 1 -1.1128 -3.039785500854388 -6.188752860728569 -4.159709132197411 3 0 0
645 71 2 0.5564 -3.4399259320661613 -7.026107991713559 -4.39408411601282 3 0 0
477 15 2 0.5564 7.695351493176365 -10.024734579006756 -5.823554146679593 -1 0 0
96 0 5 0 9.253681053640626 -10.030122784582172 -9.098463252514772 0 0 0
483 17 2 0.5564 -1.7578493055965745 -6.120639093808887 -1.1535642010192608 3 0 0
249 0 5 0 -4.662469249630442 -0.01662820356567656 -13.006043714436213 0 0 0
1164 244 2 0.5564 -10.870826772978253 -11.255849193577156 -2.7932224611538823 4 0 0
482 17 2 0.5564 -2.651440600152243 -5.872881175883043 -2.350228337402539 3 0 0
1123 231 1 -1.1128 -1.466250144460518 -11.725850431597738 -4.307282922829202 4 0 0
940 170 1 -1.1128 10.001085221405106 -7.872981371118871 -3.825595797852738 3 0 0
644 71 2 0.5564 -2.1638057570413753 -6.225500880638901 -4.543891132097943 3 0 0
667 79 1 -1.1128 0.7354379152368787 -6.785250481398093 -3.645955915257548 3 0 0
669 79 2 0.5564 0.5610347157258522 -5.845824804014649 -3.7032759528331183 3 0 0
668 79 2 0.5564 0.2379213276710663 -7.075518067907098 -2.8814801590767156 3 0 0
445 5 1 -1.1128 1.2313441454289673 -11.972389248900518 -6.753141453934696 0 0 0
1462 0 3 1.1 -1.3332422454767234 -3.5143499423534625 -2.335455054138434 1 0 0
1116 228 2 0.5564 0.5619936509025314 -1.5272601752063126 -2.6394450425196085 2 0 0
1012 194 1 -1.1128 -2.4859399805286313 -11.855777307127838 -0.05528270904572971 4 0 0
93 0 5 0 3.3804280295680957 -12.100817556460209 -9.07978533463489 0 0 0
481 17 1 -1.1128 -2.5108006236029015 -5.604831654826819 -1.4421574408350697 3 0 0
446 5 2 0.5564 2.107357265111236 -11.60791329329667 -6.87981006087385 0 0 0
1477 0 4 -1.1 -0.44211773291930423 -4.066093856302611 -4.480339521687128 1 0 0
1306 292 1 -1.1128 0.5686505019882614 -4.35664946802264 -1.0983773487570232 4 0 0
1114 228 1 -1.1128 -0.13103010357362202 -1.2362250797082814 -2.046745537556812 2 0 0
1115 228 2 0.5564 -0.8041295136651657 -0.8750709064527623 -2.6235434748410587 2 0 0
1307 292 2 0.5564 1.393066600977293 -4.055287090126237 -1.4802192702022492 4 0 0
1177 249 1 -1.1128 2.8574439471169737 -8.720925522064762 -1.9033450333286146 3 0 0
1178 249 2 0.5564 3.126043684537495 -9.123190040783237 -2.7293513907138305 3 0 0
1179 249 2 0.5564 2.485332763644234 -7.87644568687962 -2.157501055673197 3 0 0
557 42 2 0.5564 9.83518478751239 -0.22357579688083393 -7.48130734697971 0 0 0
447 5 2 0.5564 0.6429780909469225 -11.224554733814955 -6.8568944551989714 0 0 0
798 122 2 0.5564 3.4940950489355385 -3.8664323826292217 -2.395872430862329 4 0 0
796 122 1 -1.1128 3.0909330588806663 -3.3861439001826663 -1.6726572741339554 4 0 0
797 122 2 0.5564 3.672132635794109 -3.5412528539281567 -0.9280658435360216 4 0 0
498 22 2 0.5564 4.412815946660441 -10.013369471851789 -4.751733377202208 3 0 0
1330 300 1 -1.1128 3.265509508059527 -5.787716630268464 -6.333149306883955 1 0 0
1331 300 2 0.5564 3.5194199558238064 -5.671107258316908 -5.4176278874185755 1 0 0
887 152 2 0.5564 -0.7121948487528187 -2.0713626494286026 -5.685725250249685 0 0 0
62 0 5 0 1.2839378395932461 -6.01694436425581 -13.116302046963408 0 0 0
294 0 5 0 -2.680803559704975 -2.021828619276403 -8.980931348875094 0 0 0
64 0 5 0 -0.7606069122167368 -6.060824540710834 -11.063022904526811 0 0 0
59 0 5 0 -2.736401032384454 -7.936813406284516 -11.016112411477074 0 0 0
232 0 5 0 -0.6956153940888599 -2.026711103782334 -10.952367068655638 0 0 0
885 151 2 0.5564 -2.5317776728065153 -3.778966406779549 -5.70559603995711 0 0 0
889 153 1 -1.1128 1.6627305451407015 -3.6409885733593668 -6.663107251281516 0 0 0
883 151 1 -1.1128 -2.746685601463443 -3.968384012887553 -6.618930986868201 0 0 0
884 151 2 0.5564 -2.0268521225735703 -4.519918867128324 -6.925405673260247 0 0 0
1058 209 2 0.5564 1.2619342729506826 -7.745299985040203 -5.086599783813067 0 0 0
530 33 2 0.5564 -0.19087503757657784 -9.297192965893384 -6.048762140174107 0 0 0
969 179 2 0.5564 -3.433986495962867 -7.236597025581283 -6.6430240497188855 0 0 0
531 33 2 0.5564 -1.3787888361372302 -9.584520075977808 -6.942181535890346 0 0 0
551 40 2 0.5564 -0.45178822765020976 -5.612196855897593 -5.981469757518289 0 0 0
968 179 2 0.5564 -1.9334251724612561 -7.4105111441054135 -6.742848782318093 0 0 0
967 179 1 -1.1128 -2.7374483787518957 -7.8826541665416565 -6.526262367080032 0 0 0
529 33 1 -1.1128 -0.6675885660508268 -10.014176291703228 -6.467021340562832 0 0 0
550 40 1 -1.1128 -0.6329966251881225 -6.219759296457409 -6.698599012130812 0 0 0
1059 209 2 0.5564 2.11522985995515 -7.538047191917213 -6.319818077758393 0 0 0
1057 209 1 -1.1128 1.4140604060361097 -8.086484048440994 -5.967890630828318 0 0 0
890 153 2 0.5564 2.21883221927058 -2.8972036655399993 -6.431158114274985 0 0 0
552 40 2 0.5564 0.12635333632307819 -6.802269507733328 -6.717251407688345 0 0 0
295 0 5 0 -0.6734181687333348 -4.044628967677718 -8.999370842044277 0 0 0
891 153 2 0.5564 1.073646222615253 -3.742529227421664 -5.9155347841741515 0 0 0
102 0 5 0 -2.7941348657521297 -5.99143607293932 -8.950252427522688 0 0 0
104 0 5 0 1.3270347236485898 -5.983049338708165 -9.007339454594819 0 0 0
103 0 5 0 -0.6712717907304694 -8.05687353145131 -8.974320327451991 0 0 0
90 0 5 0 -2.8352551416844682 -10.14194027235551 -8.947216439621538 0 0 0
92 0 5 0 1.3329707749303106 -10.038758468435756 -9.024971805720078 0 0 0
63 0 5 0 1.2432968490139467 -7.968544605171973 -11.050549473523455 0 0 0
34 0 5 0 -2.8554821594420634 -10.04319346253707 -12.958004972282485 0 0 0
227 0 5 0 -2.7784254661828967 -4.021679721028731 -11.00417623427157 0 0 0
231 0 5 0 1.240817556499964 -3.9463732298303387 -10.992087829667616 0 0 0
40 0 5 0 -0.7552300487621 -9.965444490309979 -10.93252617682283 0 0 0
296 0 5 0 1.3300785902439018 -1.947275972353842 -8.972078176495662 0 0 0
886 152 1 -1.1128 -0.5662377351258897 -1.7125097874288673 -6.561022434273106 0 0 0
888 152 2 0.5564 -0.507816986650729 -2.480942752323588 -7.128766860440145 0 0 0
38 0 5 0 1.1859208063959366 -10.090456385010595 -13.070072148194699 0 0 0
58 0 5 0 -2.855610855612532 -6.016996078605673 -13.050737069012646 0 0 0
230 0 5 0 1.2302380680412028 -2.0267314230852693 -13.050835598637038 0 0 0
61 0 5 0 -0.7622510505676262 -8.059049064318312 -13.067258359305145 0 0 0
226 0 5 0 -2.774014770411919 -2.072391057829434 -12.935609114933575 0 0 0
229 0 5 0 -0.794349243856877 -4.048365227043001 -13.0368597047129 0 0 0
65 0 5 0 3.3282402862060034 -7.9919442766349436 -13.025787050741126 0 0 0
297 0 5 0 3.340303966632478 -3.994367906111656 -8.963460693501673 0 0 0
233 0 5 0 3.25306188042691 -3.944976003092393 -13.017429082925732 0 0 0
236 0 5 0 3.3421416535397297 -1.9677244588279503 -10.991989159820944 0 0 0
44 0 5 0 3.308217100647667 -10.12486994655651 -11.161008725406766 0 0 0
68 0 5 0 3.2110607318294533 -6.005114345991255 -11.065098528265624 0 0 0
472 14 1 -1.1128 3.41283271709408 -10.074123464700266 -6.606880005048591 0 0 0
105 0 5 0 3.3561112672791484 -8.023900017102626 -9.136504129234702 0 0 0
490 20 1 -1.1128 3.8804844435690793 -1.8071526740053916 -6.164738416648162 0 0 0
1332 300 2 0.5564 2.679840684129212 -5.052850038898102 -6.515243320037365 1 0 0
473 14 2 0.5564 2.717685551649424 -9.62454700261001 -6.12642106800151 0 0 0
1111 227 1 -1.1128 -0.6155557467509336 -7.360805101020516 -0.9840575315493914 4 0 0
876 148 2 0.5564 8.201705437019333 -0.32388056874455 -0.3277561822990858 3 0 0
1342 304 1 -1.1128 8.40425736540399 -10.495277625133424 -0.10858546630421158 1 1 0
507 25 2 0.5564 9.813865150646595 -0.008449273258601179 -2.0693964910291824 3 -1 0
903 157 2 0.5564 -1.9321572905149778 -0.4462436148915139 -6.473652743107372 0 0 0
1130 233 2 0.5564 3.91926165237359 -10.192272369606684 -1.1182388536203467 3 0 0
1124 231 2 0.5564 -1.0064729821008431 -11.249687317638111 -4.99875610266604 4 0 0
898 156 1 -1.1128 -6.962127283731264 -0.5029365442444462 -6.329241023556943 0 0 0
942 170 2 0.5564 9.764619002017424 -6.986714194287431 -3.552041241314319 3 0 0
533 34 2 0.5564 2.8759995615279927 -1.1504451078130815 -4.655144489891561 4 0 0
1112 227 2 0.5564 -0.12845689977909752 -7.4782456100655885 -0.16845576867449608 4 0 0
528 32 2 0.5564 -3.0887024808460355 -11.395017690553175 -6.717555554614385 0 0 0
532 34 1 -1.1128 2.3426493711934397 -0.8711242569742027 -3.9109783448851623 4 0 0
1113 227 2 0.5564 -1.1951219508472903 -8.121247792620336 -1.0290794509255894 4 0 0
870 146 2 0.5564 3.9354762311731504 -0.18152788682789048 -0.7634308084730153 4 0 0
433 1 1 -1.1128 9.332850517512421 -7.848550273043569 -6.645824014575149 -1 0 0
913 161 1 -1.1128 7.515699995401992 -1.9732745476316986 -6.899726681266093 0 0 0
1471 0 3 1.1 8.249644016605155 -1.7131811106273502 -3.637657477184519 3 0 0
220 0 5 0 11.43196257801257 -1.8666680847973605 -11.018187246787148 -1 0 0
1075 215 1 -1.1128 9.288123618451436 -6.233446763399987 -1.0015686196848845 3 0 0
237 0 5 0 7.302658070979774 -3.9632741670205025 -13.01631006227841 0 0 0
471 13 2 0.5564 6.611274727817061 -5.185594980509617 -6.632019939841269 0 0 0
1056 208 2 0.5564 11.243706757646303 -5.6861749540804745 -0.7138222444980176 3 0 0
475 15 1 -1.1128 7.2767790943066215 -10.07709182721667 -6.682806974992273 -1 0 0
1131 233 2 0.5564 5.1240132042864355 -11.088962419969835 -1.3090722443248666 3 0 0
818 129 2 0.5564 7.592772473377168 -11.490812833675166 -1.5942584786754164 3 0 0
541 37 1 -1.1128 -10.842334213058965 -11.811416280192567 -6.8222685406161805 0 0 0
91 0 5 0 -0.8074838304359128 -12.00993007887604 -8.971686873287121 0 0 0
497 22 2 0.5564 5.372620437085809 -10.132840856984767 -3.587089034713462 3 0 0
597 55 2 0.5564 5.6479002193260515 -0.8262313234154389 -1.3624885604053651 3 -1 0
894 154 2 0.5564 4.5846114913127325 -7.413418069226974 -1.393361438628906 3 0 0
892 154 1 -1.1128 5.365982784328509 -7.070172359731773 -1.8267507482545353 3 0 0
893 154 2 0.5564 5.821492934221354 -7.847140936484397 -2.1509281715807864 3 0 0
595 55 1 -1.1128 5.063480030271829 -0.9342328920766184 -2.1128594559389544 3 -1 0
496 22 1 -1.1128 4.442095150071348 -10.171857003337834 -3.8082003867811096 3 0 0
817 129 1 -1.1128 6.994734833056643 -11.505301122265967 -2.3415281039368994 3 0 0
589 53 1 -1.1128 1.4301516016702407 -11.713338303204628 -2.7853329251458203 4 0 0
663 77 2 0.5564 -12.103984328630503 -4.440815818701543 -3.788507488347418 4 0 0
491 20 2 0.5564 4.518310308904589 -1.1194246264125634 -6.35573838980693 0 0 0
961 177 1 -1.1128 11.621563729095271 -6.292889510633203 -6.516622972115926 -1 0 0
556 42 1 -1.1128 9.254033826956839 -0.035289284494303845 -6.74436744479765 0 0 0
469 13 1 -1.1128 7.236754567450684 -5.903641976861957 -6.535190326437895 0 0 0
625 65 1 -1.1128 -11.997898071125382 -12.006148702394684 -0.16343698742013518 4 0 0
238 0 5 0 9.432404293748606 -1.9733683191221725 -12.971703789510679 0 0 0
1055 208 2 0.5564 -11.98512594439663 -5.312157049956827 -1.776623953755857 4 0 0
1152 240 2 0.5564 9.622808319944212 -4.726431435493565 -3.4606602023244606 3 0 0
470 13 2 0.5564 8.051689103464323 -5.477788819557364 -6.269081460954231 0 0 0
465 11 2 0.5564 6.108934129826404 -11.35439707336058 -6.782984740300851 0 0 0
596 55 2 0.5564 5.145465784614162 -1.8579991372949256 -2.349863841770363 3 -1 0
1077 215 2 0.5564 9.402561346181438 -5.983982394670432 -1.9185803143848001 3 0 0
492 20 2 0.5564 4.342861781907554 -2.6231250933298402 -6.356202598097711 0 0 0
554 41 2 0.5564 -10.229058571148384 -9.287553305430166 -3.552608079918378 4 0 0
289 0 5 0 11.46823061913288 -4.012263180948181 -9.03434028918587 -1 0 0
476 15 2 0.5564 7.924919522929181 -10.508630624407376 -7.239548147631594 -1 0 0
1054 208 1 -1.1128 -12.055263470852678 -5.656781409267817 -0.8863700912331854 4 0 0
1334 301 2 0.5564 6.284967570486822 -5.7664163296245725 -0.9596334143379129 4 0 0
457 9 1 -1.1128 11.355816667193759 -10.01836239850244 -6.628589162031861 -1 0 0
962 177 2 0.5564 10.797716868964406 -6.754157148036506 -6.673753317136329 -1 0 0
1150 240 1 -1.1128 8.959441436123189 -5.414112529908333 -3.5182084926624237 3 0 0
558 42 2 0.5564 8.492750335301361 -0.5970541328139862 -6.889462069993678 0 0 0
1076 215 2 0.5564 8.450625046536215 -5.844411510823731 -0.7497213347678595 3 0 0
1304 291 2 0.5564 -5.060906500373333 -11.99691991247063 -3.4676140376131426 4 1 0
1151 240 2 0.5564 8.180049993233878 -4.968546078469301 -3.8501766041255006 3 0 0
662 77 2 0.5564 -12.053992349289379 -5.870085038581767 -4.285082039328604 4 0 0
235 0 5 0 5.299315507112992 -3.9807125908482743 -11.015141569934874 0 0 0
468 12 2 0.5564 6.192562315400701 -8.678264611101412 -6.986799063683036 0 0 0
1091 220 2 0.5564 -3.241665233611928 -8.852565473955595 -0.5108927450227819 4 0 0
300 0 5 0 9.376992908926265 -1.9565850840962704 -9.123396782329126 0 0 0
642 70 2 0.5564 4.417227557724569 -5.791574132812036 -2.997103211209143 3 -1 0
474 14 2 0.5564 4.070025301803475 -9.397001171674006 -6.767744355223213 0 0 0
674 81 2 0.5564 9.506270123884992 -10.22555427815742 -4.013118538689721 3 0 0
675 81 2 0.5564 8.323655234792229 -11.0710930828085 -3.590762430576641 3 0 0
1163 244 2 0.5564 -12.079109415592555 -10.360205409648486 -2.9657716818564968 4 0 0
299 0 5 0 7.437955236402722 -3.9879454946206625 -9.03926007197946 0 0 0
108 0 5 0 9.433720775323948 -5.952884279491718 -8.948154809136412 0 0 0
487 19 1 -1.1128 5.349567944181807 -4.0712647787091525 -6.362255350413246 0 0 0
1275 281 2 0.5564 -11.518359943660291 -2.5127767783175106 -1.7514517314827875 4 0 0
1160 243 2 0.5564 6.548758756695473 -7.881906331390989 -4.969299684690429 3 0 0
1161 243 2 0.5564 7.7780068453353115 -7.696771672349377 -4.105257780934075 3 0 0
1159 243 1 -1.1128 7.004807252199824 -8.250724522595833 -4.212863401108552 3 0 0
673 81 1 -1.1128 8.855833404308514 -10.84054137037841 -4.352229705693423 3 0 0
435 1 2 0.5564 8.44922195944664 -7.481102568519795 -6.664806227813323 -1 0 0
42 0 5 0 5.2571826832636575 -10.063030533405742 -13.116889797184314 0 0 0
71 0 5 0 9.375911416759216 -8.011841424478828 -11.090051681830383 0 0 0
70 0 5 0 9.428177123595574 -6.003442894054379 -13.124409547785902 0 0 0
984 184 2 0.5564 11.262067478993817 -1.9410236540039638 -5.723248980849522 -1 0 0
46 0 5 0 9.38769782071867 -10.065338381471577 -13.07196695347832 0 0 0
49 0 5 0 11.406134604813513 -8.035821839220702 -13.13023751474207 -1 0 0
239 0 5 0 9.408731141253629 -4.0022441210241055 -11.096127240954404 0 0 0
107 0 5 0 7.351896477773307 -7.9011486104028545 -9.076520608203808 0 0 0
94 0 5 0 5.364796047447254 -10.067271425749254 -9.092558477524232 0 0 0
240 0 5 0 7.317993433807949 -2.0285427938594105 -11.038665291099788 0 0 0
66 0 5 0 5.394103827124483 -6.032324049849855 -13.019037756026426 0 0 0
52 0 5 0 11.421060268040721 -6.0293293555632035 -10.999597795853173 -1 0 0
1335 301 2 0.5564 7.004357673725959 -4.590149186364528 -1.5847479648420626 4 0 0
1333 301 1 -1.1128 6.847053637167762 -5.021954911600924 -0.7450807916036538 4 0 0
640 70 1 -1.1128 4.326672417208391 -5.140423300562808 -3.692832912434607 3 -1 0
506 25 2 0.5564 9.844675794932504 -1.1117992086803512 -1.033266444119009 3 -1 0
1485 0 4 -1.1 6.544163781636725 -3.370869111368929 -3.405843273632756 3 0 0
466 12 1 -1.1128 5.5285828314862995 -8.044044351528298 -6.7162996167255615 0 0 0
1273 281 1 -1.1128 -11.125992261828154 -2.354509163924687 -2.6100585487819505 4 0 0
1162 244 1 -1.1128 -11.494632380905877 -10.944228648842246 -3.4489902139816024 4 0 0
641 70 2 0.5564 5.097368715149226 -4.580474363048781 -3.5992164632034114 3 -1 0
28 0 5 0 11.386163614381804 -10.024047677359071 -11.109404366464588 -1 0 0
97 0 5 0 11.302594057989841 -8.120633052967815 -9.011923630482093 -1 0 0
488 19 2 0.5564 4.672640277560023 -4.747947357194859 -6.370195899479139 0 0 0
1274 281 2 0.5564 -11.872145136361938 -2.2809457436840708 -3.205063270878407 4 0 0
467 12 2 0.5564 5.986881168656011 -7.203682213754601 -6.712577242403451 0 0 0
1480 0 4 -1.1 10.455178038367032 -2.6924527039215764 -4.009743283879274 3 -1 0
553 41 1 -1.1128 -9.750220793020542 -8.516457222907672 -3.8564628747004317 4 0 0
493 21 1 -1.1128 9.45042181429949 -3.8599895367481927 -6.639814864066799 0 0 0
1478 0 4 -1.1 10.93793304178702 -9.408843387275574 -1.3821293127123206 2 0 0
489 19 2 0.5564 5.650249276245541 -4.04322176070048 -5.453928927371049 0 0 0
217 0 5 0 11.39399369644123 -3.98782579857299 -13.051445330552637 -1 0 0
495 21 2 0.5564 10.147467696595118 -4.171110987666792 -7.217400799530358 0 0 0
464 11 2 0.5564 4.598755362914842 -11.45876591658615 -6.8020262126727 0 0 0
72 0 5 0 7.355015313261023 -5.9553922968319295 -11.066149057037778 0 0 0
434 1 2 0.5564 9.553660414480802 -7.8947183645318555 -5.715577587773396 -1 0 0
982 184 1 -1.1128 11.782142833190717 -1.8642484348769535 -6.523140890172458 -1 0 0
914 161 2 0.5564 6.6694026409802785 -2.3681895250395804 -7.109494976135398 0 0 0
459 9 2 0.5564 11.117179220306882 -9.126454472113306 -6.881115681851853 -1 0 0
458 9 2 0.5564 10.645799955065733 -10.562392079996707 -6.969317173676719 -1 0 0
48 0 5 0 7.276572316891707 -10.0847252513449 -11.135876805742436 0 0 0
234 0 5 0 5.341606495256161 -2.072016955835692 -13.111013863962938 0 0 0
941 170 2 0.5564 10.34546175319889 -8.284889128121307 -3.03313617661293 3 0 0
505 25 1 -1.1128 9.301530838548638 -0.7420347063441466 -1.7293513199801627 3 -1 0
67 0 5 0 5.2705293702218805 -8.024043992178227 -11.099995809514 0 0 0
69 0 5 0 7.373990049065181 -8.050469383616123 -13.116444009631005 0 0 0
915 161 2 0.5564 8.155881473977555 -2.6549760578328434 -7.103990354942993 0 0 0
106 0 5 0 5.324929062251224 -5.989791654709042 -9.065106973840926 0 0 0
39 0 5 0 1.3045667972565076 -12.001317367944758 -11.011689682662448 0 0 0
1466 0 3 1.1 9.27876021939461 -8.379918851660149 -0.13152328232306165 4 0 0
687 85 2 0.5564 -7.402776466681416 -7.683374387218416 6.425520909831189 0 0 0
685 85 1 -1.1128 -8.244174252367333 -8.137744875675995 6.468893211474968 0 0 0
686 85 2 0.5564 -8.525596696549139 -8.209206803921374 5.556802542303908 0 0 0
850 140 1 -1.1128 -7.772455710748221 -3.8397206688550845 6.147381563144225 1 0 0
852 140 2 0.5564 -7.90318097670411 -4.679871294352364 6.587019667894687 1 0 0
851 140 2 0.5564 -6.902991734954252 -3.554540302724713 6.428437185376215 1 0 0
1002 190 2 0.5564 -5.437248909411285 -5.55043265035975 6.409138756773088 0 0 0
620 63 2 0.5564 -9.231928612012497 -6.819184020422149 6.692178567052925 1 0 0
1001 190 2 0.5564 -5.1806855164684 -7.038059415667412 6.523317865937888 0 0 0
1225 265 1 -1.1128 -5.689972846320887 -10.483675326744788 6.82457154621746 1 0 0
1226 265 2 0.5564 -6.458694732027913 -10.715492751877697 7.3456391868021 1 0 0
619 63 1 -1.1128 -9.727079060368018 -6.0073341082973 6.582690163708475 1 0 0
161 0 5 0 -5.9770171921409325 -4.263424680275626 8.93481278056306 0 0 0