LAMMPS data file via write_data, version 2 Aug 2023, timestep = 10000, units = real

101 atoms
9 atom types
100 bonds
6 bond types
183 angles
15 angle types
210 dihedrals
3 dihedral types

-33 33 xlo xhi
-10 10 ylo yhi
-10 10 zlo zhi

Masses

1 15.9994
2 12.011
3 1.008
4 1.008
5 12.011
6 15.9994
7 15.9994
8 15.9994
9 1.008

Pair Coeffs # lj/cut/coul/long

1 0.252656 2.84916
2 0.0663016 3.58118
3 0.0282937 2.37341
4 0 0
5 0.245018 2.81144
6 0.119497 3.1
7 0.119497 3.1
8 0.119432 3.40025
9 0 0

Bond Coeffs # harmonic

1 400.057 1.4
2 400.034 1.53
3 155.354 1.42
4 143.403 1.11
5 621.415 0.938
6 442.161 0.972

Angle Coeffs # harmonic

1 47.5559 103
2 50.1709 108
3 30.1731 109.5
4 47.694 109.5
5 55.1272 109.5
6 47.635 109.6
7 55.1139 111
8 59.7937 115
9 52.4767 107.57
10 54.9566 107.6
11 54.9931 110.3
12 55.0234 111.4
13 30.1731 110
14 509.996 112
15 47.5559 103

Dihedral Coeffs # harmonic

1 0.301147 1 3
2 1.41491 1 3
3 0 1 1

Atoms # full

83 1 2 0.053 -1.1564867105328605 -6.09363237513394 -2.853108513467482 0 0 0
84 1 3 0.04 -1.3879007077357448 -7.074603797104164 -3.2082340992256047 0 0 0
86 1 1 -0.262 -2.303010546290646 -5.27507437842936 -3.004557779759576 0 0 0
92 1 3 0.04 -5.566472333080439 -5.309353483766425 -2.0082751276558928 0 0 0
85 1 3 0.04 -0.7748441504490561 -6.167897461437174 -1.8193232761801406 0 0 0
74 1 3 0.039 1.2096663464801807 -2.4414593573096637 -4.572005529359068 0 0 0
80 1 2 0.053 0.06902321562021567 -5.560892427510905 -3.607798922967468 0 0 0
76 1 2 0.053 -0.12155944498017196 -3.187397837943544 -3.0422493088914013 0 0 0
79 1 1 -0.263 0.6193686177597977 -4.411705744512974 -3.0368386099909497 0 0 0
78 1 3 0.039 -1.0955277688903706 -3.2203974445186487 -3.710209150704352 0 0 0
75 1 3 0.039 1.5816371203551833 -1.8876444029955797 -3.11862583124493 0 0 0
81 1 3 0.04 -0.13974681597401745 -5.491779447472926 -4.732451580042462 0 0 0
77 1 3 0.039 -0.4430861473134968 -2.7652471977933533 -2.0586909030856964 0 0 0
82 1 3 0.04 0.9028085102171218 -6.247029285087477 -3.52248085348699 0 0 0
73 1 2 0.053 0.724107438424215 -2.0856623121088678 -3.619425828079356 0 0 0
71 1 3 0.039 -1.0084344638943066 -0.565883686552683 -2.098284412041481 0 0 0
88 1 3 0.039 -3.907337191478609 -6.013734682776447 -3.704372463154315 0 0 0
87 1 2 0.053 -3.5488554943364083 -5.86472369299001 -2.725176602967816 0 0 0
72 1 1 -0.261 -0.004620592380437989 -0.8268895934462198 -3.930854298554902 0 0 0
69 1 2 0.053 -0.20422776749249455 -0.01621053647229981 -2.683789326936557 0 0 0
70 1 3 0.039 0.7392510699524008 0.10478451602229617 -2.074261104440556 0 0 0
95 1 3 0.04 -3.2254840390097512 -2.5357923750462437 -1.7135424512571278 0 0 0
93 1 1 -0.273 -4.107903407269438 -4.271764768384269 -0.8312918957889395 0 0 0
89 1 3 0.039 -3.477332609296649 -6.923727300099443 -2.1378336658157364 0 0 0
90 1 2 0.056 -4.584562437182837 -4.835875946500193 -2.1538635366916754 0 0 0
91 1 3 0.04 -4.840149367486015 -4.025536714281369 -2.9084458916405196 0 0 0
68 1 3 0.039 0.12711954777518997 1.8126314747170884 -3.910211751929606 0 0 0
62 1 2 0.053 -1.4238488784022683 3.605099101558196 -2.827800444597026 0 0 0
65 1 1 -0.261 -0.964708554171628 2.351756716248973 -2.33371070650047 0 0 0
66 1 2 0.053 -0.6733753386417858 1.3400480530868024 -3.286585245142386 0 0 0
63 1 3 0.039 -2.193312572613968 3.3341410619880367 -3.621344367513886 0 0 0
64 1 3 0.039 -0.7150294771161813 4.188195579116567 -3.45172923786445 0 0 0
67 1 3 0.039 -1.5982840537088474 1.2555330808075649 -3.9115811748371874 0 0 0
59 1 2 0.053 -2.0324402821935985 4.503218720319764 -1.7322760464808848 0 0 0
60 1 3 0.039 -2.8350526775074694 3.9652449716948595 -1.1627563908235357 0 0 0
61 1 3 0.039 -2.5277220680919448 5.4157964150852775 -2.189624315338456 0 0 0
58 1 1 -0.26 -1.0767099587881521 5.01217175899348 -0.7829459740201122 0 0 0
56 1 3 0.039 -2.582769027083819 6.061798971213348 0.3801069082093448 0 0 0
57 1 3 0.039 -1.0017269339085928 6.008007232408731 1.0964806058182552 0 0 0
55 1 2 0.053 -1.6956322607482042 5.393425018076597 0.5201472921076229 0 0 0
19 1 3 0.04 2.3680595799658897 3.111506724065963 -2.322751316289995 0 0 0
17 1 2 0.053 2.7174670853415575 2.557733690592216 -1.285496311607654 0 0 0
16 1 1 -0.262 3.2238650214165374 1.189074057758598 -1.5293134884484267 0 0 0
15 1 3 0.039 3.7159752882950023 1.4021803311520968 -3.6277502865791322 0 0 0
18 1 3 0.04 3.454856090466311 3.2150470318074205 -0.9035720770525586 0 0 0
11 1 3 0.04 5.59380048735512 -0.13250958069643992 -3.6824394766435367 0 0 0
13 1 2 0.053 4.110214675735042 1.2195111731943042 -2.60167086053168 0 0 0
14 1 3 0.039 4.996498107209886 2.002842880209391 -2.40190063045643 0 0 0
12 1 3 0.04 4.27614166753763 -0.981948618693982 -2.754701654394502 0 0 0
10 1 2 0.056 4.951318942410825 -0.09859101433307166 -2.7357985186565035 0 0 0
9 1 1 -0.273 5.884223158079315 -0.14208986672965457 -1.7977079450230327 0 0 0
96 1 3 0.04 -4.753376650660028 -2.2384243502904524 -0.631736446200955 0 0 0
94 1 2 0.017 -3.8062138440661637 -2.8852178386834395 -0.7294313805185773 0 0 0
97 1 5 0.062 -2.8028506800690733 -2.7126543662961007 0.48943555793656407 0 0 0
99 1 3 0.047 -2.0410116425169673 -3.552410181982704 0.5229016267758348 0 0 0
100 1 7 -0.313 -2.179491843746677 -1.5017935009318808 0.6258454328749098 0 0 0
101 1 4 0.193 -1.4544433447167313 -1.713500171458713 1.1814255551948671 0 0 0
98 1 3 0.047 -3.381060612570055 -2.7777938905735255 1.4396303846083733 0 0 0
35 1 3 0.039 0.3227585215039846 -1.3270365806465918 4.972990926566582 0 0 0
32 1 3 0.039 2.556668588071798 0.17825054448931074 5.051187492973376 0 0 0
36 1 3 0.039 1.1126866246179459 -1.250498803044603 6.546888941331643 0 0 0
40 1 3 0.039 -2.014728509775831 -1.212639804507482 5.418247705466909 0 0 0
39 1 3 0.039 -1.4729133055816697 0.1395585935713561 4.393093334411777 0 0 0
34 1 2 0.053 0.602374767922975 -0.613038168741524 5.730164502282895 0 0 0
30 1 1 -0.261 1.1173400304330354 0.9606178793313687 3.9185655290275663 0 0 0
31 1 2 0.053 1.5004588259291551 0.5213053642406784 5.201532284097251 0 0 0
29 1 3 0.039 1.1342408632040952 2.87724004262466 3.1763195024998656 0 0 0
27 1 2 0.053 1.8397271736634946 2.034952640993976 3.2901193543614276 0 0 0
28 1 3 0.039 2.73570097016989 2.3659220547448627 3.7880282422033997 0 0 0
7 1 3 0.04 4.79462470138184 -1.9512508396137573 -0.9546693047835665 0 0 0
50 1 3 0.039 -4.689030301530439 3.230666571393173 3.2876222544924434 0 0 0
54 1 3 0.039 -2.2805655236044986 3.2989554396443905 0.6350185847609396 0 0 0
52 1 2 0.053 -2.053637010682861 4.083580710862542 1.2885253583916243 0 0 0
21 1 3 0.04 0.8751414809423962 3.3222700614455536 -0.34788917335378416 0 0 0
20 1 2 0.053 1.5847766220898185 2.500836742069804 -0.2681579698581997 0 0 0
26 1 3 0.039 3.0875545940412037 1.0835109358521233 1.9402103873500456 0 0 0
22 1 3 0.04 1.030403813424014 1.617984016950769 -0.3763675596800744 0 0 0
46 1 3 0.039 -2.414893150293325 3.401410697838968 4.817805241999601 0 0 0
53 1 3 0.039 -1.1664417605507498 3.709198329013642 1.904292893012285 0 0 0
48 1 2 0.053 -3.629009136014249 3.0865856432790544 2.9449028462412694 0 0 0
51 1 1 -0.268 -3.0926895026349133 4.283423200790028 2.284464656266509 0 0 0
47 1 3 0.039 -1.8018042333398447 2.1963310488863055 3.758562212396467 0 0 0
49 1 3 0.039 -3.7042396670117355 2.273714376658354 2.0726881323293895 0 0 0
45 1 2 0.053 -2.7361039144798744 2.6108278882054505 4.107408761642701 0 0 0
44 1 1 -0.26 -3.5419826756449018 1.4952882139988184 4.849173647651162 0 0 0
41 1 2 0.053 -2.9476660944974857 0.676797198728025 5.9168106416050374 0 0 0
42 1 3 0.039 -3.7168453595314555 0.05829719332781918 6.442376799262388 0 0 0
43 1 3 0.039 -2.5987657251903595 1.4319633625184804 6.678076917388369 0 0 0
38 1 2 0.053 -1.768682379296016 -0.15896868681030396 5.408388433777307 0 0 0
25 1 3 0.039 1.3684871965953098 0.7167135138596736 1.4968060715251603 0 0 0
37 1 1 -0.261 -0.528289381324779 0.003250220723967018 6.367883196097656 0 0 0
33 1 3 0.039 1.5816379058525902 1.3508230347911792 5.885444667694769 0 0 0
24 1 2 0.053 2.071522856926501 1.5696329772100053 1.8618940440336982 0 0 0
23 1 1 -0.263 2.11764264171216 2.7038713279783813 1.0276559681849957 0 0 0
1 1 4 0.193 7.116771882022814 0.4739301812470941 0.43818515183559814 0 0 0
2 1 6 -0.313 7.0265368900001635 -0.3418107867542619 0.9645397357505391 0 0 0
3 1 5 0.062 6.478404176304349 -1.3639062883395585 0.21840115970426052 0 0 0
8 1 3 0.04 4.676488988784529 -0.31855156098505033 -0.1948578430073577 0 0 0
6 1 2 0.017 5.3383905614420355 -0.976633217154361 -0.7354447335214315 0 0 0
4 1 3 0.047 7.2818449382775485 -1.6896243949788048 -0.4163862232854415 0 0 0
5 1 3 0.047 6.174400764582949 -2.1130361426746487 0.9976561402311178 0 0 0

Velocities

83 -0.004085170656003362 0.002323496624615778 0.007897377892094269
84 0.02819966177763384 8.084471977547661e-05 -0.002358179272016719
86 0.006086466171094085 0.0002522789267941512 -0.0002167753758830306
92 -0.023712255542593243 -0.006052206977890864 0.010794492302019986
85 0.019622108812132902 0.03497726104435693 0.003055857697338236
74 -0.01047476112978012 -0.005910726800063918 -0.013997258794730788
80 -0.004070222354064987 -0.011865011181761326 -0.0039351269494142735
76 0.0027053225665433023 0.0001761043150458611 -0.0048295106762863485
79 0.0021307061627202435 0.0034993437705078075 0.001148710180838128
78 0.0072839145920528935 0.0023329509979332238 0.00297735102807457
75 -0.017293804680396013 0.01738257160693582 0.014285805084670259
81 0.0010943902749156445 0.006040890917661947 -0.023095009959705273
77 0.00983264571538188 -0.00022786283713917342 -0.012091504162226234
82 0.004800608824793901 -0.00659288379329197 -0.0009315150319606999
73 0.005838499473602151 0.002213539973673848 0.0034134104119570756
71 0.006751154636813081 0.008551945875093817 0.002018602111846823
88 0.00762107528124795 -0.028543620923082425 -0.005428873606716546
87 0.004225808725341907 -0.00036661780493126304 0.0018697965104223133
72 0.0025913588648232167 0.005407084464711229 0.005521502210921684
69 -0.0016693699034675085 -0.0016900548241730237 0.006866745024702609
70 -0.012752299603308306 0.009176714339274295 0.017847848324900713
95 -0.035432847983605444 -0.024534747425259764 -0.00829840839838227
93 -0.0011241957492246954 -0.003088137348132859 0.0006408259756602841
89 0.017333670736160375 -0.032110978651018446 -0.009319575882489889
90 0.008208322961460913 0.00012721426913026354 0.0029908427242635372
91 -0.022992927346904234 -0.012811680967796083 0.012060727440554546
68 0.0058214882873206955 0.01603912073175142 0.014935266131079124
62 0.004921824298272603 0.006945379875259985 -0.000681894551543455
65 -0.008875693572107556 -0.0055663969118564275 -0.0018675910253196971
66 0.0034960698992616843 0.0034608852919139964 0.002744394197121836
63 0.01389460981902911 0.021249772226726322 0.0045295397149295365
64 -0.010468961594130946 0.00011504102390907154 0.007949289137070409
67 -0.025982708050049624 -0.011527486250030097 -0.0028949878629805784
59 -0.003754854880096831 -0.0041024104086879185 0.005417614570051883
60 0.002453266013276475 0.011447747436080083 0.026967415192648215
61 -0.012156801289949512 0.02234153463317167 -0.014510451754417165
58 0.0011086242346399038 0.0006920335946679912 -0.0009950464895559518
56 0.00960876838500269 0.003489573115558513 0.01821185972608176
57 -0.008761157221885049 0.02909265635878621 0.01950274115171806
55 -0.0035307882034165176 0.007916518681809363 -0.006265829954310208
19 0.00020291849516644266 0.009919928768133801 0.004986921008844804
17 0.004012505746269998 -0.0002483136081622192 -0.007587007491771257
16 0.0041533604810643785 -0.0009229750204410555 0.0009305630292965344
15 -0.005094978322415679 0.0043024719665884685 -0.01922120585553117
18 -0.01148532542423961 -0.009122794299628968 0.015711347635430636
11 -0.000413865638416089 -0.010999072057217226 0.018634026832499283
13 0.00415933529366034 0.0001364853218703965 -0.00739380730124567
14 -0.001442968885195151 0.013568143885045233 -0.0011709292339756447
12 -0.00137288492041495 0.02746519959510006 -0.007989300384959274
10 -0.0016855953234385145 0.009044698514759694 -0.00250444952695364
9 -0.00555229887993953 -0.005160799762714191 0.0005055627672313778
96 0.015270035621386098 -0.010396582599105047 0.0020784454487559017
94 -0.011952331906797854 -0.0031662935310967284 -0.005666963532401663
97 -0.008604166147780107 0.003875170701017734 -0.006129973424725569
99 -0.008760214798027357 -0.0039187857833306375 0.018301138258307738
100 0.0034922549045336487 -0.00028686573939124715 -0.0044877041488109734
101 0.0018380661778477257 0.0009002390792629679 0.03918733813792245
98 -0.016780052122603327 -0.00809768799908291 0.009783075763583652
35 0.020778066568386298 0.00592660899447663 -0.012963208178254299
32 0.00707959436707588 -0.017256069993810304 0.006150454588697186
36 0.006700972834998784 0.004425700413220174 0.01065089356572215
40 -0.004314381696598626 -0.013983979780911421 -0.006065095815682978
39 -0.02296012934329721 0.0043841824075741 0.02315740921435846
34 0.005007892635312991 0.0038210409677151133 0.00475460688426608
30 -0.004580085694267366 0.00337591929800079 -0.0009320127707889114
31 0.007373241502355083 0.002007092166545108 0.005260705007122068
29 -0.025546457048782622 -0.01505534133508618 -0.021192633169679707
27 0.006658907507231191 -0.009976178781079854 0.0026142484451229147
28 -0.007861228087671484 0.004754361261991742 0.006430807311859725
7 0.012263134293371824 0.0015107252499779883 -0.009946824313887416
50 -0.002772609740844526 0.025275153632739182 0.013288300700664115
54 -0.016857328163912996 0.03512462404405739 0.022193026162763464
52 0.0077924546109505045 0.0034925413056775896 0.0042596019605411406
21 -0.005844403845653601 -0.0077732208814582085 0.006560731577593112
20 -0.0024883205036445376 0.00122986505547381 -0.010231729899207403
26 0.01168309956192309 0.0003744000997446123 -0.02090439404187107
22 0.0024462545944410486 -0.004734620753466302 -0.021846186806890402
46 -0.010742948728102667 0.008073185614842606 -0.011224396323141664
53 0.007635527609620439 0.017917747375706956 -0.002890698841210089
48 -0.0002724647751514145 0.00031783934728483646 -0.0035915861633446294
51 -0.003358397481549892 -0.0035530535297281884 -0.0003992293628515649
47 0.00037824789287399464 0.01783781331138097 0.009467447292360268
49 0.018705791926490505 -0.02600525453355617 -0.006986220873456861
45 -0.008668488815777024 0.003929420662541919 -0.003969854193525311
44 0.0024238734726940193 -0.0017068683671949577 0.002606060119223303
41 -0.007833049853194584 -0.0014923166937145396 -0.0027456765526591084
42 -0.008472187017425485 -0.0121899100686585 -0.003965682349632134
43 0.015777447952996567 0.010166318025082149 0.0031791951545856205
38 -0.007578931100914949 0.007182210977075491 -0.0010589793524562162
25 0.010147172239499189 0.004842207913612361 0.0012554701780847543
37 0.00021882589218770535 -0.009259118593152114 0.003545063291190246
33 0.011561145715315777 -0.003567726242324234 -0.023959845524367758
24 0.005010406737412239 -0.004802456697760127 -0.004644601727793275
23 0.0003285867563103638 0.005400764675776367 0.004215521074944334
1 -0.009415778761802813 -0.019501617634853603 -0.018849816984496937
2 0.003922558284741825 2.229113695717009e-05 -0.0033084212243221812
3 0.002073792724669088 -0.005126907599081688 0.002748163673257266
8 -0.0014005667721721066 -0.007959337286705899 0.006917681304464946
6 -0.0021138706995039052 -0.0038330564632796356 0.0025727731716534454
4 -0.0027550088232728732 -0.024503916830664645 0.00043656246978309614
5 -0.01739293795293686 -0.020173822035250255 0.011381163460339704

Bonds

1 4 83 84
2 4 83 85
3 3 83 86
4 3 86 87
5 4 80 81
6 4 80 82
7 2 80 83
8 4 76 77
9 4 76 78
10 3 76 79
11 3 79 80
12 4 73 74
13 4 73 75
14 2 73 76
15 4 87 88
16 4 87 89
17 2 87 90
18 3 72 73
19 4 69 70
20 4 69 71
21 3 69 72
22 3 93 94
23 4 90 91
24 4 90 92
25 3 90 93
26 4 62 63
27 4 62 64
28 3 62 65
29 3 65 66
30 4 66 67
31 4 66 68
32 2 66 69
33 4 59 60
34 4 59 61
35 2 59 62
36 3 58 59
37 4 55 56
38 4 55 57
39 3 55 58
40 4 17 18
41 4 17 19
42 2 17 20
43 3 16 17
44 4 13 14
45 4 13 15
46 3 13 16
47 4 10 11
48 4 10 12
49 2 10 13
50 3 9 10
51 4 94 95
52 4 94 96
53 2 94 97
54 4 97 98
55 4 97 99
56 1 97 100
57 5 100 101
58 4 34 35
59 4 34 36
60 3 34 37
61 3 30 31
62 4 31 32
63 4 31 33
64 2 31 34
65 4 27 28
66 4 27 29
67 3 27 30
68 4 52 53
69 4 52 54
70 2 52 55
71 4 20 21
72 4 20 22
73 3 20 23
74 4 48 49
75 4 48 50
76 3 48 51
77 3 51 52
78 4 45 46
79 4 45 47
80 2 45 48
81 3 44 45
82 4 41 42
83 4 41 43
84 3 41 44
85 4 38 39
86 4 38 40
87 2 38 41
88 3 37 38
89 4 24 25
90 4 24 26
91 2 24 27
92 3 23 24
93 5 1 2
94 1 2 3
95 4 3 4
96 4 3 5
97 2 3 6
98 4 6 7
99 4 6 8
100 3 6 9

Angles

1 13 80 83 84
2 13 80 83 85
3 5 80 83 86
4 9 84 83 85
5 7 84 83 86
6 7 85 83 86
7 4 83 86 87
8 3 79 80 81
9 3 79 80 82
10 5 79 80 83
11 9 81 80 82
12 14 81 80 83
13 14 82 80 83
14 13 73 76 77
15 13 73 76 78
16 5 73 76 79
17 9 77 76 78
18 7 77 76 79
19 7 78 76 79
20 4 76 79 80
21 3 72 73 74
22 3 72 73 75
23 5 72 73 76
24 9 74 73 75
25 13 74 73 76
26 13 75 73 76
27 3 86 87 88
28 3 86 87 89
29 5 86 87 90
30 9 88 87 89
31 13 88 87 90
32 13 89 87 90
33 4 69 72 73
34 14 66 69 70
35 14 66 69 71
36 5 66 69 72
37 9 70 69 71
38 3 70 69 72
39 3 71 69 72
40 4 90 93 94
41 14 87 90 91
42 14 87 90 92
43 5 87 90 93
44 9 91 90 92
45 3 91 90 93
46 3 92 90 93
47 14 59 62 63
48 14 59 62 64
49 5 59 62 65
50 9 63 62 64
51 3 63 62 65
52 3 64 62 65
53 4 62 65 66
54 6 65 66 67
55 6 65 66 68
56 5 65 66 69
57 9 67 66 68
58 14 67 66 69
59 14 68 66 69
60 6 58 59 60
61 6 58 59 61
62 5 58 59 62
63 9 60 59 61
64 14 60 59 62
65 14 61 59 62
66 4 55 58 59
67 14 52 55 56
68 14 52 55 57
69 5 52 55 58
70 9 56 55 57
71 6 56 55 58
72 6 57 55 58
73 7 16 17 18
74 7 16 17 19
75 5 16 17 20
76 9 18 17 19
77 13 18 17 20
78 13 19 17 20
79 4 13 16 17
80 13 10 13 14
81 13 10 13 15
82 5 10 13 16
83 9 14 13 15
84 3 14 13 16
85 3 15 13 16
86 3 9 10 11
87 3 9 10 12
88 5 9 10 13
89 9 11 10 12
90 14 11 10 13
91 14 12 10 13
92 4 6 9 10
93 13 93 94 95
94 13 93 94 96
95 5 93 94 97
96 10 95 94 96
97 11 95 94 97
98 11 96 94 97
99 12 94 97 98
100 12 94 97 99
101 8 94 97 100
102 2 98 97 99
103 1 98 97 100
104 1 99 97 100
105 4 97 100 101
106 14 31 34 35
107 14 31 34 36
108 5 31 34 37
109 9 35 34 36
110 6 35 34 37
111 6 36 34 37
112 4 27 30 31
113 3 30 31 32
114 3 30 31 33
115 5 30 31 34
116 9 32 31 33
117 14 32 31 34
118 14 33 31 34
119 13 24 27 28
120 13 24 27 29
121 5 24 27 30
122 9 28 27 29
123 3 28 27 30
124 3 29 27 30
125 3 51 52 53
126 3 51 52 54
127 5 51 52 55
128 9 53 52 54
129 14 53 52 55
130 14 54 52 55
131 14 17 20 21
132 14 17 20 22
133 5 17 20 23
134 9 21 20 22
135 3 21 20 23
136 3 22 20 23
137 14 45 48 49
138 14 45 48 50
139 5 45 48 51
140 9 49 48 50
141 3 49 48 51
142 3 50 48 51
143 4 48 51 52
144 6 44 45 46
145 6 44 45 47
146 5 44 45 48
147 9 46 45 47
148 14 46 45 48
149 14 47 45 48
150 4 41 44 45
151 14 38 41 42
152 14 38 41 43
153 5 38 41 44
154 9 42 41 43
155 6 42 41 44
156 6 43 41 44
157 3 37 38 39
158 3 37 38 40
159 5 37 38 41
160 9 39 38 40
161 14 39 38 41
162 14 40 38 41
163 4 34 37 38
164 7 23 24 25
165 7 23 24 26
166 5 23 24 27
167 9 25 24 26
168 13 25 24 27
169 13 26 24 27
170 4 20 23 24
171 4 1 2 3
172 1 2 3 4
173 1 2 3 5
174 8 2 3 6
175 2 4 3 5
176 12 4 3 6
177 12 5 3 6
178 11 3 6 7
179 11 3 6 8
180 5 3 6 9
181 10 7 6 8
182 13 7 6 9
183 13 8 6 9

Dihedrals

1 1 80 83 86 87
2 3 84 83 86 87
3 3 85 83 86 87
4 3 83 86 87 88
5 3 83 86 87 89
6 1 83 86 87 90
7 3 79 80 83 84
8 3 79 80 83 85
9 2 79 80 83 86
10 3 81 80 83 84
11 3 81 80 83 85
12 3 81 80 83 86
13 3 82 80 83 84
14 3 82 80 83 85
15 3 82 80 83 86
16 1 73 76 79 80
17 3 77 76 79 80
18 3 78 76 79 80
19 3 76 79 80 81
20 3 76 79 80 82
21 1 76 79 80 83
22 3 72 73 76 77
23 3 72 73 76 78
24 2 72 73 76 79
25 3 74 73 76 77
26 3 74 73 76 78
27 3 74 73 76 79
28 3 75 73 76 77
29 3 75 73 76 78
30 3 75 73 76 79
31 3 86 87 90 91
32 3 86 87 90 92
33 2 86 87 90 93
34 3 88 87 90 91
35 3 88 87 90 92
36 3 88 87 90 93
37 3 89 87 90 91
38 3 89 87 90 92
39 3 89 87 90 93
40 3 69 72 73 74
41 3 69 72 73 75
42 1 69 72 73 76
43 1 66 69 72 73
44 3 70 69 72 73
45 3 71 69 72 73
46 3 90 93 94 95
47 3 90 93 94 96
48 1 90 93 94 97
49 1 87 90 93 94
50 3 91 90 93 94
51 3 92 90 93 94
52 1 59 62 65 66
53 3 63 62 65 66
54 3 64 62 65 66
55 3 62 65 66 67
56 3 62 65 66 68
57 1 62 65 66 69
58 3 65 66 69 70
59 3 65 66 69 71
60 2 65 66 69 72
61 3 67 66 69 70
62 3 67 66 69 71
63 3 67 66 69 72
64 3 68 66 69 70
65 3 68 66 69 71
66 3 68 66 69 72
67 3 58 59 62 63
68 3 58 59 62 64
69 2 58 59 62 65
70 3 60 59 62 63
71 3 60 59 62 64
72 3 60 59 62 65
73 3 61 59 62 63
74 3 61 59 62 64
75 3 61 59 62 65
76 3 55 58 59 60
77 3 55 58 59 61
78 1 55 58 59 62
79 1 52 55 58 59
80 3 56 55 58 59
81 3 57 55 58 59
82 3 16 17 20 21
83 3 16 17 20 22
84 2 16 17 20 23
85 3 18 17 20 21
86 3 18 17 20 22
87 3 18 17 20 23
88 3 19 17 20 21
89 3 19 17 20 22
90 3 19 17 20 23
91 3 13 16 17 18
92 3 13 16 17 19
93 1 13 16 17 20
94 1 10 13 16 17
95 3 14 13 16 17
96 3 15 13 16 17
97 3 9 10 13 14
98 3 9 10 13 15
99 2 9 10 13 16
100 3 11 10 13 14
101 3 11 10 13 15
102 3 11 10 13 16
103 3 12 10 13 14
104 3 12 10 13 15
105 3 12 10 13 16
106 3 6 9 10 11
107 3 6 9 10 12
108 1 6 9 10 13
109 3 93 94 97 98
110 3 93 94 97 99
111 2 93 94 97 100
112 3 95 94 97 98
113 3 95 94 97 99
114 3 95 94 97 100
115 3 96 94 97 98
116 3 96 94 97 99
117 3 96 94 97 100
118 1 94 97 100 101
119 3 98 97 100 101
120 3 99 97 100 101
121 1 31 34 37 38
122 3 35 34 37 38
123 3 36 34 37 38
124 3 27 30 31 32
125 3 27 30 31 33
126 1 27 30 31 34
127 3 30 31 34 35
128 3 30 31 34 36
129 2 30 31 34 37
130 3 32 31 34 35
131 3 32 31 34 36
132 3 32 31 34 37
133 3 33 31 34 35
134 3 33 31 34 36
135 3 33 31 34 37
136 1 24 27 30 31
137 3 28 27 30 31
138 3 29 27 30 31
139 3 51 52 55 56
140 3 51 52 55 57
141 2 51 52 55 58
142 3 53 52 55 56
143 3 53 52 55 57
144 3 53 52 55 58
145 3 54 52 55 56
146 3 54 52 55 57
147 3 54 52 55 58
148 1 17 20 23 24
149 3 21 20 23 24
150 3 22 20 23 24
151 1 45 48 51 52
152 3 49 48 51 52
153 3 50 48 51 52
154 3 48 51 52 53
155 3 48 51 52 54
156 1 48 51 52 55
157 3 44 45 48 49
158 3 44 45 48 50
159 2 44 45 48 51
160 3 46 45 48 49
161 3 46 45 48 50
162 3 46 45 48 51
163 3 47 45 48 49
164 3 47 45 48 50
165 3 47 45 48 51
166 3 41 44 45 46
167 3 41 44 45 47
168 1 41 44 45 48
169 1 38 41 44 45
170 3 42 41 44 45
171 3 43 41 44 45
172 3 37 38 41 42
173 3 37 38 41 43
174 2 37 38 41 44
175 3 39 38 41 42
176 3 39 38 41 43
177 3 39 38 41 44
178 3 40 38 41 42
179 3 40 38 41 43
180 3 40 38 41 44
181 3 34 37 38 39
182 3 34 37 38 40
183 1 34 37 38 41
184 3 23 24 27 28
185 3 23 24 27 29
186 2 23 24 27 30
187 3 25 24 27 28
188 3 25 24 27 29
189 3 25 24 27 30
190 3 26 24 27 28
191 3 26 24 27 29
192 3 26 24 27 30
193 3 20 23 24 25
194 3 20 23 24 26
195 1 20 23 24 27
196 3 1 2 3 4
197 3 1 2 3 5
198 1 1 2 3 6
199 3 2 3 6 7
200 3 2 3 6 8
201 2 2 3 6 9
202 3 4 3 6 7
203 3 4 3 6 8
204 3 4 3 6 9
205 3 5 3 6 7
206 3 5 3 6 8
207 3 5 3 6 9
208 1 3 6 9 10
209 3 7 6 9 10
210 3 8 6 9 10
