LAMMPS data file via write_data, version 2 Aug 2023, timestep = 500000, units = real

1491 atoms
5 atom types
686 bonds
1 bond types
343 angles
1 angle types

-12.120000000000001 12.120000000000001 xlo xhi
-12.120000000000001 12.120000000000001 ylo yhi
-28.28 28.28 zlo zhi

Masses

1 15.9994
2 1.008
3 28.99
4 35.453
5 26.9815

Pair Coeffs # lj/cut/tip4p/long

1 0.185199 3.1589
2 0 0
3 0.0469 2.4299
4 0.15 4.0447
5 11.697 2.574

Bond Coeffs # harmonic

1 0 0.9572

Angle Coeffs # harmonic

1 0 104.52

Atoms # full

478 16 1 -1.1128 -8.791230230017307 -9.919731186972083 -6.78780485383273 0 0 0
86 0 5 0 -10.87794713960866 -10.005869153625644 -9.13296415330297 0 0 0
484 18 1 -1.1128 -6.601187913377673 -8.247606816712768 -6.7558554928927546 0 0 0
451 7 1 -1.1128 -10.892448107658794 -7.963269941157514 -6.433499793100037 1 0 0
544 38 1 -1.1128 -8.757607945799805 -5.820033713730214 -6.6459396761362175 0 0 0
545 38 2 0.5564 -7.930235376970562 -5.4309162188786 -6.362600922763644 0 0 0
452 7 2 0.5564 -9.981979344561868 -8.20755723281936 -6.599662040908338 1 0 0
453 7 2 0.5564 -11.002505865257282 -8.075375451248666 -5.4892794619670875 1 0 0
480 16 2 0.5564 -8.252007244536275 -10.643860695973824 -6.469824612888533 0 0 0
485 18 2 0.5564 -7.436904764159105 -8.704047580212539 -6.8531487662318975 0 0 0
479 16 2 0.5564 -9.474257910209472 -10.34043255443617 -7.3100214748127605 0 0 0
546 38 2 0.5564 -9.297578828286229 -5.837610678760917 -5.85578061112077 0 0 0
486 18 2 0.5564 -5.94743554303933 -8.94637783251352 -6.7320952342502975 0 0 0
1153 241 1 -1.1128 -6.451727317195006 -4.025733660566985 -5.429208009762544 0 0 0
1045 205 1 -1.1128 -10.786847930430428 -4.123102181858774 -6.654939691289346 0 0 0
1154 241 2 0.5564 -5.770954272721051 -4.682330642277529 -5.576402805450075 0 0 0
1155 241 2 0.5564 -6.156707785349989 -3.2596481315285315 -5.921460257933954 0 0 0
1047 205 2 0.5564 -11.563072301376257 -4.680222878909896 -6.597339139580517 0 0 0
1046 205 2 0.5564 -10.056573897024407 -4.7366129267997765 -6.735823328988898 0 0 0
291 0 5 0 -8.84327739929554 -3.967029661318277 -8.995997631062776 0 0 0
100 0 5 0 -6.810157431820364 -6.079845248981639 -8.971023712171865 0 0 0
99 0 5 0 -8.823959344823336 -8.019901727762713 -9.029121000039469 0 0 0
88 0 5 0 -6.812515654399872 -10.036989173216345 -9.069900558436533 0 0 0
98 0 5 0 -10.870447566574143 -6.0039643702892 -8.944124228841378 0 0 0
55 0 5 0 -6.780405165401003 -8.05119552451372 -10.991111548521998 0 0 0
56 0 5 0 -8.847774945799527 -5.968422048833772 -10.974317940364667 0 0 0
219 0 5 0 -10.872640053776264 -4.041499650765307 -11.00447458586493 0 0 0
223 0 5 0 -6.772214744195745 -3.9379843144191975 -10.927632389350235 0 0 0
32 0 5 0 -8.835207992666804 -9.951187461656742 -11.07486141643242 0 0 0
51 0 5 0 -10.892742672912602 -7.968776025967977 -11.00360068423842 0 0 0
30 0 5 0 -6.918699411581681 -10.012820170283398 -13.138430468703179 0 0 0
222 0 5 0 -6.773478926484816 -1.8709358884743434 -12.93287028857144 0 0 0
218 0 5 0 -10.905838999806315 -1.92294704086261 -12.994619941010823 0 0 0
292 0 5 0 -6.844138489036319 -1.8860294800578103 -8.93096408888143 0 0 0
221 0 5 0 -8.835561778267845 -3.915365136120074 -12.951842007335706 0 0 0
224 0 5 0 -8.944511604717665 -1.8672299489845667 -10.942920658385225 0 0 0
290 0 5 0 -10.981162042112292 -1.9168411652319302 -8.890507861875363 0 0 0
50 0 5 0 -10.886685164522682 -5.864899600385766 -12.997968696840802 0 0 0
54 0 5 0 -6.83578512682356 -6.028057484172109 -12.974603384346333 0 0 0
53 0 5 0 -8.923060837347723 -7.993341700557657 -12.983655808427345 0 0 0
26 0 5 0 -10.774489363647696 -10.022821328775564 -13.055687105043443 0 0 0
36 0 5 0 -4.824920364070545 -10.07251234763164 -11.060931938935394 0 0 0
481 17 1 -1.1128 -4.687400499891053 -10.258342002054341 -6.259997617772966 0 0 0
547 39 1 -1.1128 -4.784423666251251 -6.04179999924781 -6.416348771659121 0 0 0
101 0 5 0 -4.783202775889497 -8.006469730964636 -8.974311693247788 0 0 0
60 0 5 0 -4.8394014233895755 -6.024001049653253 -10.945170622669545 0 0 0
225 0 5 0 -4.8191931345087 -4.0280290725339105 -12.985337505708634 0 0 0
57 0 5 0 -4.750551888494828 -8.005650355237625 -13.005892132195381 0 0 0
1048 206 1 -1.1128 -8.995894288519912 -2.084294504485075 -6.365270914296503 0 0 0
964 178 1 -1.1128 -4.923146634345893 -2.0690168062188405 -6.5451324079932265 0 0 0
228 0 5 0 -4.859567221269466 -1.8691416322495065 -10.979221654039835 0 0 0
293 0 5 0 -4.840458230733541 -3.872025712456344 -8.986667815102189 0 0 0
1050 206 2 0.5564 -9.562515261628992 -2.8520935624673682 -6.44045569119457 0 0 0
1049 206 2 0.5564 -9.590811538017043 -1.3384593911554568 -6.44292791138873 0 0 0
600 56 2 0.5564 -6.090073737445008 -2.9169560462901316 -3.760918347941327 1 -1 0
598 56 1 -1.1128 -6.386288860444159 -2.7782263465446024 -2.8613380111620526 1 -1 0
599 56 2 0.5564 -7.337677953567094 -2.874276107422461 -2.9044389269253434 1 -1 0
483 17 2 0.5564 -5.463962983237595 -10.811715549956563 -6.176604348096256 0 0 0
582 50 2 0.5564 -6.435350813681936 -7.297738953564885 -3.819224669725375 0 0 0
747 105 2 0.5564 -10.2842296894318 -6.923186839566114 -3.4980371889786928 2 -1 0
746 105 2 0.5564 -8.799380231793396 -6.628083613630948 -3.503691806278412 2 -1 0
610 60 1 -1.1128 -4.954543399985197 -6.825333105401942 -3.2946402913931614 1 0 0
745 105 1 -1.1128 -9.635961107344755 -6.308425493369449 -3.8416119024243014 2 -1 0
612 60 2 0.5564 -4.42922638534088 -6.144707810937434 -3.715386990421919 1 0 0
1468 0 3 1.1 -6.181356444076369 -0.5224801354881446 -2.1645434461105415 1 0 0
562 44 1 -1.1128 -11.522234701169575 -8.415988587729684 -3.6054319593697297 1 0 0
564 44 2 0.5564 -12.015943612926755 -8.364031836133334 -2.78703060341647 1 0 0
640 70 1 -1.1128 -7.0398059897104455 -5.464138706047744 -1.8628414912910494 1 -1 0
549 39 2 0.5564 -5.568905401293147 -6.476428341877916 -6.750883119878199 0 0 0
580 50 1 -1.1128 -7.229316394687753 -7.744092240520925 -4.11354747729999 0 0 0
581 50 2 0.5564 -7.053282469954183 -7.969524303771454 -5.027016453908583 0 0 0
1308 292 2 0.5564 -7.638743646038485 -8.748839284919832 -2.7181225500365196 1 0 0
1307 292 2 0.5564 -7.0519863724782335 -9.495977618678069 -1.5393966189906798 1 0 0
829 133 1 -1.1128 -7.6600903837589795 -0.9203347066167393 -0.5087812393261772 1 -1 0
563 44 2 0.5564 -11.249645795807814 -9.331713876334286 -3.663543662657335 1 0 0
1334 301 2 0.5564 -9.047492953490986 -3.161441330116914 -4.560100906680486 1 0 0
1201 257 1 -1.1128 8.734392074051359 -1.3308787886036724 -0.16321063249794496 0 0 0
642 70 2 0.5564 -6.551778831384522 -4.642298247939228 -1.9142615905092548 1 -1 0
1335 301 2 0.5564 -9.460559895046798 -4.01814080796731 -3.3822479582824756 1 0 0
1333 301 1 -1.1128 -9.087578536553552 -3.1648808638059998 -3.603746572131086 1 0 0
979 183 1 -1.1128 -10.647820344026519 -1.7253556643448815 -1.4352263070381226 0 0 0
1306 292 1 -1.1128 -7.8851914834298125 -9.259414464274354 -1.9468830111478115 1 0 0
1236 268 2 0.5564 -5.2417321271714465 -1.0864829003828935 -5.104581567210135 0 0 0
91 0 5 0 -0.7621081996545723 -11.939715475648162 -8.919007874139904 0 0 0
855 141 2 0.5564 -8.97712945774361 -0.24372455781014848 -3.709430780509139 1 0 0
980 183 2 0.5564 -10.814635615446603 -0.8936126758438515 -1.878630500733163 0 0 0
981 183 2 0.5564 -10.137409184818662 -2.234745726154056 -2.0647012198607593 0 0 0
603 57 2 0.5564 -10.791761187240125 -7.4438619698654955 -0.4292334739154089 0 0 0
900 156 2 0.5564 -6.597508920984927 -0.10635777173002554 -5.595866957958575 0 0 0
899 156 2 0.5564 -7.64743963855896 -0.7866171970045103 -6.448386044175126 0 0 0
1159 243 1 -1.1128 -10.040969765999895 -11.158327731016186 -4.1551036192922775 1 0 0
1082 217 2 0.5564 -1.681780625270915 -6.66620959970969 -0.20721435350853767 1 0 0
1160 243 2 0.5564 -9.162134972419812 -10.87153706752112 -4.403375844380463 1 0 0
611 60 2 0.5564 -5.378545559174822 -6.381535483386407 -2.5601372247989955 1 0 0
966 178 2 0.5564 -4.907736620315125 -1.3690292919547717 -7.1978283551720175 0 0 0
1487 0 4 -1.1 -4.2955198833014485 -0.7076128020227686 -0.6720544216075265 1 0 0
909 159 2 0.5564 0.9974239611202735 -0.008752383669052774 -5.470602154927213 0 0 0
601 57 1 -1.1128 -11.428206819374317 -6.810850508683727 -0.7616045084746458 0 0 0
1221 263 2 0.5564 11.82870777804205 -2.528538530847268 -1.043580202104434 0 1 0
1239 269 2 0.5564 -9.17546984012792 -9.213786194007918 -0.6284199717312501 0 1 0
1200 256 2 0.5564 4.608965674623765 -0.11200835979160365 -3.912657406733725 0 0 0
641 70 2 0.5564 -7.193277931924586 -5.593962276277884 -0.9269869989901323 1 -1 0
732 100 2 0.5564 0.7226087800305885 -0.09988809122675277 -0.22959178473380393 0 -1 0
37 0 5 0 -0.7692959504308904 -12.054951285603869 -12.996033143013078 0 0 0
543 37 2 0.5564 -10.42771917440533 -11.689884936934662 -5.892714687321271 0 0 0
517 29 1 -1.1128 9.479038642600896 -11.69748798665563 -6.872061688243386 -1 0 0
1183 251 1 -1.1128 -9.487077088033786 -4.62324121298195 -1.1079937582252521 1 0 0
831 133 2 0.5564 -8.602288366221968 -0.9508093296879468 -0.34277263094594596 1 -1 0
1231 267 1 -1.1128 10.286222661512392 -11.80728508625324 -3.392243620137202 0 0 0
587 52 2 0.5564 -5.718386117517653 -10.919365303546677 -0.913616694029477 0 0 0
1256 275 2 0.5564 3.2195988883383095 -1.0239386019180479 -0.9241234098607313 0 0 0
548 39 2 0.5564 -4.608722420073055 -5.344292295653476 -7.047890934618061 0 0 0
608 59 2 0.5564 0.5344272678916261 -0.7766273756234566 -3.5507259759030947 0 0 0
586 52 1 -1.1128 -5.4161603961054805 -10.020547345995817 -1.0440646976984107 0 0 0
965 178 2 0.5564 -4.144083250753386 -2.5916438756721174 -6.735289280168128 0 0 0
588 52 2 0.5564 -4.7055880876904865 -10.096330982351821 -1.6809175197274466 0 0 0
1161 243 2 0.5564 -9.906907332294818 -12.009820303884272 -3.7389058173855503 1 0 0
27 0 5 0 -10.85313295798237 -12.082998506014395 -11.021104146624939 0 0 0
1255 275 1 -1.1128 4.172723541139606 -1.078775364575977 -0.9931943735688319 0 0 0
85 0 5 0 11.419866632426611 -11.99654181719906 -9.015077674089575 -1 0 0
984 184 2 0.5564 12.05825888466244 -2.267061650882425 -7.183089495349819 -1 0 0
862 144 1 -1.1128 -2.735072875536995 -0.3086371405183206 -3.333087758274648 1 0 0
1185 251 2 0.5564 -10.21519982430657 -5.233441236169168 -1.225124664317086 1 0 0
1220 263 2 0.5564 11.024481958485103 -3.792408297121613 -0.8250625352609575 0 1 0
702 90 2 0.5564 -11.421378343240155 -0.614123125803926 -3.6063544297664896 1 -1 0
556 42 1 -1.1128 9.538424289966866 -0.05006479160399195 -6.237539931256463 0 0 0
1184 251 2 0.5564 -8.752288910239443 -5.0365529746297915 -1.5613126737773402 1 0 0
1257 275 2 0.5564 4.4379311976450175 -0.22560786500214394 -1.3367112730239976 0 0 0
482 17 2 0.5564 -3.9651260941951754 -10.874900213954874 -6.380051395574624 0 0 0
95 0 5 0 7.338663571245304 -12.047286393539943 -9.024206680823935 0 0 0
780 116 2 0.5564 -2.0044040485249437 -0.5575540489417732 -0.23588528559132946 1 0 0
1233 267 2 0.5564 10.148019468969864 -10.885217273854323 -3.608860742372127 0 0 0
25 0 5 0 11.406991364935012 -11.981930167038213 -13.02406908831476 -1 0 0
872 147 2 0.5564 -1.3322193057924623 -9.304690173798134 -0.42333483312611847 1 0 0
1199 256 2 0.5564 3.1645112068510697 -0.454240426432989 -3.6154634419647973 0 0 0
1076 215 2 0.5564 5.373324995285107 -11.847364421127628 -2.0914581811594344 0 0 0
45 0 5 0 7.307668902873472 -12.035224676140565 -13.08398531798394 0 0 0
1424 331 2 0.5564 -4.057878219798146 -8.827331011975257 -3.353006264987226 0 0 0
1101 223 2 0.5564 3.757361871246273 -11.529981361409186 -3.249804601990691 1 1 0
711 93 2 0.5564 -1.4366116763380619 -11.996086352350302 -2.834278966606104 1 0 0
1083 217 2 0.5564 -0.4731046448914361 -5.778848613029429 -0.41599223087813864 1 0 0
1245 271 2 0.5564 -11.220880151060882 -11.949784629227828 -2.1716427495579915 1 0 0
709 93 1 -1.1128 -0.5404761373915313 -11.7659746071849 -2.588892190524933 1 0 0
1423 331 1 -1.1128 -3.3743272500691273 -9.279788092574725 -2.858771435139048 0 0 0
1425 331 2 0.5564 -3.428781083271303 -10.189507319989492 -3.1514814396915205 0 0 0
710 93 2 0.5564 -0.6326915966250247 -11.286541890488353 -1.7655625514577666 1 0 0
908 159 2 0.5564 1.8268292996544282 -0.9302107114431774 -6.339450169820453 0 0 0
833 134 2 0.5564 -2.196156303891201 -4.566495474906529 -0.9753698877208489 0 0 0
1157 242 2 0.5564 -2.6193138374075464 -4.953565503281823 -3.3049034548050233 1 0 0
1156 242 1 -1.1128 -2.700742639870528 -5.231348931321634 -4.217284734840373 1 0 0
1378 316 1 -1.1128 -2.638129529635149 -8.086682065269503 -0.556067216332517 1 1 0
1379 316 2 0.5564 -3.0551288917089665 -8.466360528529458 -1.329491892133982 1 1 0
970 180 1 -1.1128 -1.3141755272240259 -7.980310671662855 -4.133314864825408 1 0 0
971 180 2 0.5564 -2.073123325078179 -8.2614272036778 -3.6222388812888666 1 0 0
1158 242 2 0.5564 -1.9491695863295952 -5.806422071848296 -4.361046510100908 1 0 0
917 162 2 0.5564 1.3773794704693978 -6.864183247958803 -0.46980268898561 1 0 0
832 134 1 -1.1128 -2.430583562771258 -3.973885148580442 -1.6895772907676947 0 0 0
834 134 2 0.5564 -2.916667553309837 -3.266948472757043 -1.2650884043706332 0 0 0
972 180 2 0.5564 -1.6601695431670331 -7.827683944999599 -5.0126459348265735 1 0 0
918 162 2 0.5564 1.565082015811066 -5.374158042131456 -0.2787815791185107 1 0 0
809 126 2 0.5564 3.1645729619997525 -8.778942114031294 -4.0678820748314894 1 0 0
916 162 1 -1.1128 1.2633154611961062 -6.0238302063702776 -0.9136822207430593 1 0 0
1008 192 2 0.5564 1.327823240178981 -5.020506861273147 -4.0304244109148755 0 0 0
1006 192 1 -1.1128 1.2259061889297074 -4.550659669221555 -3.202723061335922 0 0 0
1007 192 2 0.5564 1.2516687167194107 -5.234743748958793 -2.53369466352799 0 0 0
968 179 2 0.5564 -3.4806154050945857 -7.38024184220953 -6.367717179985803 0 0 0
634 68 1 -1.1128 2.6053502506386534 -2.329397454531789 -3.481179153989546 0 -1 0
636 68 2 0.5564 3.1946692274401136 -2.634586032775777 -4.170961342118192 0 -1 0
669 79 2 0.5564 3.0055881560163664 -6.771016847522372 -4.972782109168638 0 0 0
668 79 2 0.5564 1.7414664880010613 -7.587284331121709 -4.806649100361007 0 0 0
667 79 1 -1.1128 2.415885949604383 -7.126311744003011 -4.307760655306899 0 0 0
1316 295 2 0.5564 0.040158648770427116 -9.143793325084417 -4.123058377977188 0 0 0
1315 295 1 -1.1128 0.504899340864526 -9.961595957562874 -4.300380817868979 0 0 0
1317 295 2 0.5564 0.2141925572465197 -10.55740628523114 -3.6099250182700655 0 0 0
887 152 2 0.5564 -0.8916492861654787 -2.297390300819497 -5.5071127083325315 0 0 0
62 0 5 0 1.2583401748534386 -6.00339500199301 -13.056999173845714 0 0 0
294 0 5 0 -2.775284853074285 -1.9956978159034011 -9.025958088695246 0 0 0
64 0 5 0 -0.7390318741255203 -5.9540488389349795 -11.001087903179542 0 0 0
59 0 5 0 -2.755032205081936 -7.9605080145992195 -10.928952499846467 0 0 0
232 0 5 0 -0.7229225152635439 -1.945216242980202 -10.945054743024127 0 0 0
885 151 2 0.5564 -2.821581909077662 -4.246243482122678 -5.747393804806234 0 0 0
889 153 1 -1.1128 1.577506634263989 -4.175939925933325 -6.769353021085241 0 0 0
883 151 1 -1.1128 -2.9614292719945965 -3.8511831342782417 -6.607976726429498 0 0 0
884 151 2 0.5564 -2.2890630751376673 -3.172983440886539 -6.672829988172372 0 0 0
1058 209 2 0.5564 0.6781568435411092 -7.155514725316421 -6.638386728514289 0 0 0
530 33 2 0.5564 -1.5734855747221028 -9.435311839399555 -6.431328875271915 0 0 0
969 179 2 0.5564 -3.7053361162976395 -8.875509426333188 -6.442354263623726 0 0 0
531 33 2 0.5564 -0.3901158221854847 -10.094636628065867 -5.755442920919701 0 0 0
551 40 2 0.5564 -1.3654618305086488 -5.283608810216289 -6.63243672277958 0 0 0
967 179 1 -1.1128 -3.0138629866441056 -8.213793662410962 -6.427397457580865 0 0 0
529 33 1 -1.1128 -0.830262791853937 -10.013974370333687 -6.6016103825403665 0 0 0
550 40 1 -1.1128 -0.5690801448283866 -5.766384189590912 -6.411236537667067 0 0 0
1059 209 2 0.5564 0.4428450284036125 -8.633680816234135 -6.865430921724564 0 0 0
1057 209 1 -1.1128 1.1224727768401557 -8.003264853072384 -6.626872894734266 0 0 0
890 153 2 0.5564 2.0996250858831105 -3.3774529018050807 -6.69159312060126 0 0 0
552 40 2 0.5564 0.1405022781669567 -5.241267192260341 -6.781348196470378 0 0 0
295 0 5 0 -0.8087122380550926 -3.976450404670215 -9.021101585818073 0 0 0
891 153 2 0.5564 2.2059134381734924 -4.886835220597114 -6.642981239139005 0 0 0
102 0 5 0 -2.7833574131928436 -5.942966084831468 -8.893047542992186 0 0 0
104 0 5 0 1.3507142208942997 -5.894646150132032 -8.98897639446145 0 0 0
103 0 5 0 -0.6820032457348428 -8.05687935199588 -8.939193679812066 0 0 0
90 0 5 0 -2.8228865637540212 -10.002003978835496 -8.964839329542997 0 0 0
92 0 5 0 1.2751974364475884 -10.125623975901666 -8.928376045400947 0 0 0
63 0 5 0 1.2283580338346756 -7.98034576929821 -10.981412025125493 0 0 0
34 0 5 0 -2.7167612445650016 -10.013979557259614 -12.956865782318724 0 0 0
227 0 5 0 -2.829249835223257 -3.9357734813122316 -10.99698150200982 0 0 0
231 0 5 0 1.3085536068162003 -3.9875926337923735 -10.971709571990731 0 0 0
40 0 5 0 -0.7776414994618619 -10.039383566304412 -10.951992803208322 0 0 0
296 0 5 0 1.2923944586010834 -1.9953881216040037 -8.99538136705481 0 0 0
886 152 1 -1.1128 -1.0309303633352958 -1.9797099771547702 -6.399252268574977 0 0 0
888 152 2 0.5564 -0.22031577149027054 -1.520973439250745 -6.619939413260336 0 0 0
38 0 5 0 1.229293928419406 -10.04926886011585 -12.957019260429094 0 0 0
58 0 5 0 -2.7804896634876535 -5.924246174541279 -12.912362128531816 0 0 0
230 0 5 0 1.1857436485028552 -1.8312408937619846 -12.96829625119236 0 0 0
61 0 5 0 -0.8016048108818216 -7.9727896373096385 -12.967886010627597 0 0 0
226 0 5 0 -2.8017699170285892 -1.8809867593320948 -12.961579938980352 0 0 0
229 0 5 0 -0.7408536361928143 -3.963054657727235 -12.879659762141179 0 0 0
65 0 5 0 3.1863667663757487 -8.009174066035088 -12.976847197739794 0 0 0
297 0 5 0 3.3719682227563363 -3.8957200503041993 -8.984937489349772 0 0 0
233 0 5 0 3.2309604265447485 -3.9706312744717427 -13.120837167100849 0 0 0
236 0 5 0 3.3058424471055967 -1.9737088766421005 -11.027992229053707 0 0 0
44 0 5 0 3.2918506188858645 -10.119940666602771 -11.031587078579301 0 0 0
68 0 5 0 3.2634192667698367 -5.956891608649625 -11.023061500637038 0 0 0
472 14 1 -1.1128 3.320863803704429 -10.104766271003246 -6.511442521326988 0 0 0
105 0 5 0 3.1698878555220897 -8.10107975821804 -9.04132008063032 0 0 0
490 20 1 -1.1128 3.410485947463523 -1.7528158678611478 -6.566399193655967 0 0 0
487 19 1 -1.1128 3.5666908988862516 -5.873215449045453 -6.426831104116737 0 0 0
903 157 2 0.5564 -2.4244125529358076 -0.6569567263796298 -6.567473495373461 0 0 0
1177 249 1 -1.1128 -1.0266097772175595 -2.8144697541224466 -3.893081535943447 1 0 0
1179 249 2 0.5564 -0.2616575956966732 -3.3614249913135024 -3.714400502829353 1 0 0
474 14 2 0.5564 3.2473273784432752 -9.95254820527777 -5.569288391782131 0 0 0
473 14 2 0.5564 2.5189888829925593 -10.57384515178286 -6.7420668354211 0 0 0
808 126 1 -1.1128 3.724606015129552 -9.522151734733832 -3.843757253758542 1 0 0
1178 249 2 0.5564 -1.648941944709279 -3.0388560488190257 -3.2012857828370023 1 0 0
491 20 2 0.5564 3.8575804035045187 -2.4813272748332467 -6.135570640667853 0 0 0
492 20 2 0.5564 4.105246134298495 -1.1212663545148007 -6.752653348343618 0 0 0
761 110 2 0.5564 4.514471133840061 -2.9515827693127004 -0.8029177441609344 1 -1 0
528 32 2 0.5564 -1.9873571207216845 -11.277034062225296 -6.386647663014297 0 0 0
635 68 2 0.5564 2.1547343985346212 -3.119683114632921 -3.18348366787123 0 -1 0
1130 233 2 0.5564 3.3995218904109237 -6.088427563568992 -2.900673616269017 0 0 0
489 19 2 0.5564 4.184933236522489 -6.590568722721795 -6.566177999044557 0 0 0
863 144 2 0.5564 -3.080568648427171 -0.5372462959931908 -2.470185937791258 1 0 0
721 97 1 -1.1128 3.129431741637873 -9.435591283385632 -1.1078440033632595 0 0 0
488 19 2 0.5564 4.084093261377237 -5.189841077706538 -6.000767701839037 0 0 0
723 97 2 0.5564 2.7117405158607406 -10.292687488198954 -1.0232889080903187 0 0 0
722 97 2 0.5564 3.2981711019134354 -9.342300897030709 -2.045424874041848 0 0 0
33 0 5 0 -4.794754489863232 -12.038942146822578 -13.116937512482963 0 0 0
35 0 5 0 -2.8081859352671983 -12.05573199775599 -11.03221212262234 0 0 0
106 0 5 0 5.199050519526938 -5.989139849772035 -9.08815024389469 0 0 0
907 159 1 -1.1128 1.1266038204177546 -0.27883115087810295 -6.37977810875914 0 0 0
871 147 1 -1.1128 -0.65710502679756 -9.967868013735737 -0.2796596534866121 1 0 0
48 0 5 0 7.251061916310258 -10.043514218774487 -11.056367826573439 0 0 0
913 161 1 -1.1128 7.143314411649115 -1.628071948129601 -6.24178397229763 0 0 0
52 0 5 0 11.326225688150167 -5.940182965678064 -11.06673195172605 -1 0 0
1077 215 2 0.5564 6.4817042577104536 -11.048801583551645 -2.7439053750863747 0 0 0
1123 231 1 -1.1128 11.775385752526452 -1.9308972891892122 -4.035284075922691 0 0 0
627 65 2 0.5564 7.643366466093469 -6.339857597148264 -3.6410906108018857 0 0 0
434 1 2 0.5564 9.346022808004047 -8.695580451509969 -6.1882305696673034 -1 0 0
963 177 2 0.5564 12.026931950204641 -6.757163876477596 -6.425114214625628 -1 0 0
1203 257 2 0.5564 9.460311628667892 -1.9193239296665272 -0.3706053194058282 0 0 0
1219 263 1 -1.1128 10.930497270247747 -2.85059141703815 -0.9678226861330791 0 1 0
87 0 5 0 -8.83627419423246 -12.011919188756305 -9.024561866144559 0 0 0
1234 268 1 -1.1128 -5.3009807199983054 -0.47309059233945694 -4.37213919981004 0 0 0
1075 215 1 -1.1128 6.3078048028190725 -11.652228542603845 -2.0215010282362518 0 0 0
435 1 2 0.5564 8.828025559429042 -8.616727153405684 -7.60856706056496 -1 0 0
760 110 1 -1.1128 4.545130176625239 -3.8531920788312046 -0.4829288157951011 1 -1 0
1129 233 1 -1.1128 4.183602120452555 -5.69480578314643 -2.5179130144738116 0 0 0
89 0 5 0 -4.867280005896715 -11.99104057634222 -8.99300359417246 0 0 0
762 110 2 0.5564 4.24758594788551 -4.381073443392362 -1.2239010611079426 1 -1 0
29 0 5 0 -8.844370928242224 -12.084386749389132 -13.014715583608702 0 0 0
446 5 2 0.5564 1.020485196135604 -11.662437159495243 -5.791092602805136 0 0 0
1131 233 2 0.5564 4.466345127560547 -5.0468762571877575 -3.163263830436688 0 0 0
561 43 2 0.5564 11.254402439086208 -5.312695390959997 -4.624288114144014 -1 0 0
1090 220 1 -1.1128 10.393997170643186 -5.874874193811557 -1.4987026725408914 0 0 0
1092 220 2 0.5564 9.967919695910398 -5.4930745689272085 -0.7312935708760551 0 0 0
1144 238 1 -1.1128 8.580152282633914 -4.585907012013369 -4.064139286264482 0 0 0
31 0 5 0 -6.8827331613030465 -11.951919659847963 -11.066692364834603 0 0 0
1232 267 2 0.5564 10.659712285551977 -11.793414422493049 -2.5110229176281456 0 0 0
914 161 2 0.5564 7.934146301558051 -1.141993884192833 -6.475348277122964 0 0 0
1211 260 2 0.5564 10.956167206819737 -9.336598979590562 -0.599541947281511 0 0 0
458 9 2 0.5564 -12.01433583273385 -9.28754661978517 -6.8032600796520954 0 0 0
1235 268 2 0.5564 -4.456629311892941 -0.547972301929576 -3.9275025240245443 0 0 0
1223 264 2 0.5564 10.716405724658523 -9.636039068648678 -5.134361399514136 0 0 0
734 101 2 0.5564 6.972533702622501 -6.722353902513893 -1.631804009151894 0 0 0
1222 264 1 -1.1128 9.890194977811923 -9.526255630192724 -4.663656909758524 0 0 0
493 21 1 -1.1128 9.351170959891004 -3.7399244465679042 -6.773467852109353 0 0 0
1091 220 2 0.5564 11.093346659500913 -6.420186914040441 -1.138448412084018 0 0 0
810 126 2 0.5564 4.616458486381132 -9.186797334076678 -3.9352837014713047 1 0 0
238 0 5 0 9.37904390083012 -1.8155398580347326 -13.067972237419959 0 0 0
497 22 2 0.5564 6.7606552294404 -2.9905460362533853 -2.1673322477144 0 0 0
240 0 5 0 7.363137552640393 -1.9459153690985986 -11.051442413777892 0 0 0
938 169 2 0.5564 6.751983047958015 -10.056490307289764 -4.698830973325483 0 0 0
237 0 5 0 7.299682910595012 -3.9534496729596733 -13.04253225981037 0 0 0
915 161 2 0.5564 6.423660015535617 -1.0811480933617945 -6.55674244328858 0 0 0
69 0 5 0 7.2378310990532855 -7.967376545761894 -13.029734176702332 0 0 0
1224 264 2 0.5564 10.035903529364358 -8.769082164083025 -4.0964793473399155 0 0 0
939 169 2 0.5564 6.819603798763052 -8.907819085449704 -3.7150228790547586 0 0 0
93 0 5 0 3.346820475740219 -12.096360892223972 -9.075342229076403 0 0 0
1146 238 2 0.5564 9.487343312400077 -4.364442364985447 -4.274369747632076 0 0 0
1477 0 4 -1.1 5.017833404552244 -3.786400339187583 -4.887468593025169 0 0 0
470 13 2 0.5564 6.410991723638318 -6.378537600488248 -7.219623266899478 0 0 0
108 0 5 0 9.271310725088885 -5.987950882713551 -9.055520278360325 0 0 0
1394 321 2 0.5564 5.676797142887435 -2.035757973338487 -3.7897539002814455 0 0 0
1212 260 2 0.5564 9.890282227273815 -8.353485425342992 -1.034595115040993 0 0 0
46 0 5 0 9.283622268381373 -9.945681686884699 -13.101843924169101 0 0 0
72 0 5 0 7.253975208720898 -6.009703331750847 -11.02211631191501 0 0 0
468 12 2 0.5564 5.968563073822684 -8.584811526081936 -6.780131971155053 0 0 0
94 0 5 0 5.294019739115904 -9.99973343214583 -9.040155213648529 0 0 0
71 0 5 0 9.41742889526414 -7.99497835919911 -11.074750034990466 0 0 0
626 65 2 0.5564 6.2151720900176155 -6.828341923441689 -3.757449573547514 0 0 0
433 1 1 -1.1128 9.229915824482399 -8.088337809148378 -6.918989242562907 -1 0 0
298 0 5 0 5.316017038074898 -1.9084234554463821 -8.998088055305407 0 0 0
1145 238 2 0.5564 8.456491811311627 -4.267706166326811 -3.1698869779671845 0 0 0
1395 321 2 0.5564 5.143693931588372 -1.5647235973048306 -2.4534060534019586 0 0 0
1125 231 2 0.5564 11.77957167710728 -2.886954702853969 -3.988715819911733 0 0 0
1393 321 1 -1.1128 5.839325621761315 -1.4025150472054804 -3.090596991960468 0 0 0
625 65 1 -1.1128 7.056848327915612 -7.039495377691048 -3.353443593216436 0 0 0
459 9 2 0.5564 -12.059287753057696 -10.800364695846335 -6.838700003948308 0 0 0
476 15 2 0.5564 7.914670864003143 -10.795922370249666 -6.885046650098655 -1 0 0
557 42 2 0.5564 10.254823677012684 -0.6581999296689733 -6.4196964067743565 0 0 0
559 43 1 -1.1128 11.250780704769697 -4.607142672027509 -3.977437915475912 -1 0 0
560 43 2 0.5564 10.991134366931302 -5.032255685030309 -3.1600679166448957 -1 0 0
234 0 5 0 5.234529349828173 -1.894875464417253 -13.054057227551374 0 0 0
96 0 5 0 9.323200522012767 -9.961272470178352 -9.156834325026981 0 0 0
1121 230 2 0.5564 9.099383965460376 -0.4572214992167948 -4.2410557712514905 0 0 0
299 0 5 0 7.2250264873252315 -3.951909204255228 -9.081940794153137 0 0 0
475 15 1 -1.1128 7.138488639482999 -10.284956277211457 -6.6554970635792365 -1 0 0
70 0 5 0 9.293554200255672 -6.0118863362492405 -13.107202052799584 0 0 0
66 0 5 0 5.192286194612599 -6.064733837513093 -13.09491277793037 0 0 0
239 0 5 0 9.288463076382234 -3.989715889613941 -11.02397403122657 0 0 0
495 21 2 0.5564 9.915051340013727 -2.9775094731853136 -6.643090060281898 0 0 0
469 13 1 -1.1128 7.152673563625922 -5.92674993742726 -6.817103417516708 0 0 0
519 29 2 0.5564 10.226736729782159 -11.100200870867397 -6.892908032121982 -1 0 0
471 13 2 0.5564 7.894631663626813 -6.516318209099063 -6.9518093419854115 0 0 0
961 177 1 -1.1128 11.323221838669413 -6.133841725547006 -6.244839781992751 -1 0 0
67 0 5 0 5.211270773378977 -8.061794154894347 -11.092924193322155 0 0 0
42 0 5 0 5.191273783003142 -10.05253877146628 -13.207105747225766 0 0 0
289 0 5 0 11.333386651032438 -3.925269858463686 -8.973004102217933 -1 0 0
496 22 1 -1.1128 7.561498979731175 -3.3992076755213834 -1.8388954071056203 0 0 0
97 0 5 0 11.302620550438446 -8.000973917325451 -9.01406964358459 -1 0 0
962 177 2 0.5564 10.536598538429669 -6.552174862425406 -6.594764108619376 -1 0 0
107 0 5 0 7.282579520363842 -8.006411558859707 -9.12608918140435 0 0 0
1120 230 1 -1.1128 9.333192576318114 -0.556324767454939 -3.3181570300109064 0 0 0
300 0 5 0 9.350482182575673 -1.9651460153402682 -8.996848497879409 0 0 0
217 0 5 0 11.262976708459938 -3.948210328829421 -13.00599057029421 -1 0 0
937 169 1 -1.1128 6.3111539445104405 -9.68904451809981 -3.932743692953427 0 0 0
466 12 1 -1.1128 5.149911787560218 -8.09245795087691 -6.840435249175734 0 0 0
28 0 5 0 11.369833287820262 -9.953107636173826 -11.12700018503642 -1 0 0
1124 231 2 0.5564 10.959056076541726 -1.6733294020015848 -3.6069262576508314 0 0 0
457 9 1 -1.1128 11.617583002240773 -10.02644381468087 -6.825723177231607 -1 0 0
983 184 2 0.5564 11.754595085940004 -1.9822861671526861 -5.727552882232117 -1 0 0
494 21 2 0.5564 9.954350195621148 -4.4826687402210235 -6.800717590314744 0 0 0
49 0 5 0 11.417026223613508 -7.909298701511515 -13.158005251791236 -1 0 0
1462 0 3 1.1 7.268748758670228 -3.8666093689800816 -5.8835566374593276 0 0 0
465 11 2 0.5564 4.503365754392538 -11.455204136990421 -6.552792711987034 0 0 0
498 22 2 0.5564 8.04920250139965 -2.6812271136608263 -1.435305415196978 0 0 0
733 101 1 -1.1128 6.642776024805859 -6.497239266439757 -0.7618512470042189 0 0 0
735 101 2 0.5564 5.707874897375521 -6.699064535541625 -0.7999439549651615 0 0 0
235 0 5 0 5.258419916357204 -4.046134719048681 -11.092749390981124 0 0 0
477 15 2 0.5564 6.423901146436572 -10.921812991598086 -6.653416656762855 -1 0 0
467 12 2 0.5564 4.470004852519131 -8.763626152417235 -6.899478525440495 0 0 0
1210 260 1 -1.1128 10.446413481655803 -9.06073660238292 -1.3613075738241842 0 0 0
982 184 1 -1.1128 11.369556642871608 -1.9423919796488096 -6.602989121170418 -1 0 0
220 0 5 0 11.373030528281639 -1.8825661158663383 -11.034268417995373 -1 0 0
47 0 5 0 9.343936059937889 -11.981574807672175 -11.136146328161828 0 0 0
902 157 2 0.5564 -3.10188484143348 -0.05886679549130791 -5.352888933606668 0 0 0
527 32 2 0.5564 -2.8143400271937606 -11.95169733222163 -5.312951026950683 0 0 0
39 0 5 0 1.2825594579777024 -12.07063154926634 -10.985070762981266 0 0 0
853 141 1 -1.1128 -8.055994067930143 -0.10520971673822545 -3.489094225735494 1 0 0
526 32 1 -1.1128 -2.605694848995044 -11.994084856176734 -6.246171707963735 0 0 0
43 0 5 0 5.336662510677731 -12.107610858345549 -11.056104923960266 0 0 0
41 0 5 0 3.238139401092927 -12.093491856015184 -12.990515187770695 0 0 0
687 85 2 0.5564 -8.890477940505619 -9.144961908207554 6.5897074902734865 0 0 0
685 85 1 -1.1128 -8.219463065487378 -8.466203809780389 6.517228296742119 0 0 0