LAMMPS data file via write_data, version 2 Aug 2023, timestep = 1000000, units = real

1491 atoms
5 atom types
686 bonds
1 bond types
343 angles
1 angle types

-12.120000000000001 12.120000000000001 xlo xhi
-12.120000000000001 12.120000000000001 ylo yhi
-28.28 28.28 zlo zhi

Masses

1 15.9994
2 1.008
3 28.99
4 35.453
5 26.9815

Pair Coeffs # lj/cut/tip4p/long

1 0.185199 3.1589
2 0 0
3 0.0469 2.4299
4 0.15 4.0447
5 11.697 2.574

Bond Coeffs # harmonic

1 0 0.9572

Angle Coeffs # harmonic

1 0 104.52

Atoms # full

478 16 1 -1.1128 -8.846954668962905 -9.853105300141046 -6.718566428612718 0 0 0
86 0 5 0 -10.901893787598983 -9.942942662617536 -9.072746463283597 0 0 0
484 18 1 -1.1128 -6.915980876746093 -7.801877928707485 -6.639001493236796 0 0 0
451 7 1 -1.1128 -10.925927965759666 -7.902931267444068 -6.559715446722655 1 0 0
544 38 1 -1.1128 -8.947386506483873 -5.684779058976159 -6.587037201845195 0 0 0
545 38 2 0.5564 -9.628286113417252 -5.052057090810101 -6.8156565253798815 0 0 0
452 7 2 0.5564 -10.2950951381216 -7.197981605800174 -6.413659941936022 1 0 0
480 16 2 0.5564 -8.992485943646757 -9.393091059824584 -5.891863163563304 0 0 0
485 18 2 0.5564 -7.446756017031893 -8.594369811654714 -6.719386688100471 0 0 0
479 16 2 0.5564 -8.34783631696976 -10.632650978595619 -6.474796147219361 0 0 0
546 38 2 0.5564 -8.12596774628272 -5.210860159941728 -6.717081875586158 0 0 0
486 18 2 0.5564 -7.535813823726862 -7.083851899705288 -6.767351271899508 0 0 0
1153 241 1 -1.1128 -6.704183938869895 -3.9364237661899204 -6.6241733441721795 0 0 0
1045 205 1 -1.1128 -11.23856743559134 -4.00500803188657 -6.67141016043706 0 0 0
1154 241 2 0.5564 -6.221555857732371 -3.110239967232675 -6.597196485328588 0 0 0
1155 241 2 0.5564 -6.045215241229265 -4.605463116343603 -6.438746958647694 0 0 0
1047 205 2 0.5564 -10.69378452058124 -3.8409576007693103 -5.901646197162799 0 0 0
291 0 5 0 -8.897421666619296 -3.844418699029516 -9.055252380982115 0 0 0
100 0 5 0 -6.783085281263941 -5.809759627098613 -8.966640117316134 0 0 0
99 0 5 0 -8.837126588020038 -8.020614958608805 -9.037128996050638 0 0 0
88 0 5 0 -6.805435439989958 -10.056225077407866 -9.025277908576737 0 0 0
98 0 5 0 -10.895228300212354 -5.995165641618297 -8.991881965510773 0 0 0
55 0 5 0 -6.827912104559528 -8.045162801882123 -10.951848059349972 0 0 0
56 0 5 0 -8.858945002746692 -5.892544499923101 -10.940334154203962 0 0 0
219 0 5 0 -10.96078277025215 -3.926506104298724 -11.034247294716215 0 0 0
223 0 5 0 -6.768316760403564 -3.8814958634378733 -10.929884148871182 0 0 0
32 0 5 0 -8.864793592181679 -10.035186918007113 -11.092277144942672 0 0 0
51 0 5 0 -10.87654000599187 -7.957753291713862 -11.027294126396342 0 0 0
30 0 5 0 -6.743518911161661 -9.941153058260136 -13.040574578774084 0 0 0
222 0 5 0 -6.773760587401463 -1.97125190538908 -12.984038592629137 0 0 0
218 0 5 0 -10.782073014207073 -1.8736524051192345 -13.096394372271668 0 0 0
292 0 5 0 -6.8529369770091835 -1.8686836549854617 -8.902051641658048 0 0 0
221 0 5 0 -8.783721218545185 -4.00297193274924 -12.979907850647889 0 0 0
224 0 5 0 -8.838605781732376 -1.8841495336313832 -11.088457591713487 0 0 0
290 0 5 0 -10.902550457232781 -1.8602002930440367 -8.929805726379813 0 0 0
50 0 5 0 -10.74193645801028 -5.8593546263096705 -13.060549689757876 0 0 0
54 0 5 0 -6.905569384366207 -5.957108212561162 -12.841598825785542 0 0 0
53 0 5 0 -8.835146049700224 -7.94462414865531 -13.000417021336617 0 0 0
26 0 5 0 -10.854353610462828 -9.978584382578294 -13.116606475161309 0 0 0
36 0 5 0 -4.8218849411396105 -10.06238892298288 -10.964708983618799 0 0 0
481 17 1 -1.1128 -4.786235995829385 -9.99916791358945 -6.777685166187106 0 0 0
547 39 1 -1.1128 -4.7072762512860775 -5.9134017032626645 -6.339107322765134 0 0 0
101 0 5 0 -4.838333880156083 -7.981417548686153 -9.012494917478255 0 0 0
60 0 5 0 -4.777034795252985 -5.971265137939981 -10.946614457882756 0 0 0
225 0 5 0 -4.860526288408216 -4.0129419994273965 -13.089740811617066 0 0 0
57 0 5 0 -4.768031644787872 -7.909233370700622 -12.96503520928647 0 0 0
1048 206 1 -1.1128 -8.994655880109567 -2.0161982035606587 -6.538452493813944 0 0 0
964 178 1 -1.1128 -5.090503191385539 -1.7434558621957272 -6.558722578891345 0 0 0
228 0 5 0 -4.821582586290889 -1.9076220516670026 -10.900489034429821 0 0 0
293 0 5 0 -4.7232332975839055 -3.9099106583232084 -8.868040472105552 0 0 0
1050 206 2 0.5564 -8.660299326936647 -1.67105087546283 -5.710614451262581 0 0 0
1049 206 2 0.5564 -8.565399692023172 -2.8663023490567476 -6.634878397804513 0 0 0
1046 205 2 0.5564 -11.674336388240684 -3.1694939639782715 -6.839490219726309 0 0 0
1090 220 1 -1.1128 -5.7511344226732914 -9.111656680064435 -4.177505105763426 2 0 0
87 0 5 0 -8.922194645260209 -12.007750230167284 -9.088196348980448 0 0 0
483 17 2 0.5564 -5.524132992168185 -10.605650814950947 -6.715129533350005 0 0 0
757 109 1 -1.1128 -6.528628486368812 -8.098463161250688 -1.6057240649946343 1 -1 0
1092 220 2 0.5564 -5.913992439000923 -9.069721543656664 -5.119815980743034 2 0 0
758 109 2 0.5564 -6.5827958017235515 -7.657099209543321 -2.453364985928647 1 -1 0
965 178 2 0.5564 -5.011942852894523 -1.8566731902867626 -5.611493406573113 0 0 0
626 65 2 0.5564 -8.696465874365067 -8.390271781217983 -3.8358616739142914 1 0 0
625 65 1 -1.1128 -9.19187519303316 -9.182746499901265 -4.042724723741383 1 0 0
627 65 2 0.5564 -10.108557267157915 -8.910299585639574 -4.001601551650315 1 0 0
760 110 1 -1.1128 -12.035874741780606 -9.252030356223287 -3.812291249984287 2 -1 0
1466 0 3 1.1 -9.25065305218051 -10.43174854715062 -2.1756216420859325 2 0 0
1333 301 1 -1.1128 -10.677301875753054 -4.226790824944084 -4.026004833640578 1 0 0
1334 301 2 0.5564 -10.90420780015235 -5.105847043446416 -3.722681704295952 1 0 0
1316 295 2 0.5564 -11.58854564674862 -7.579273301733294 -2.9384903068141943 1 0 0
1315 295 1 -1.1128 -11.165471143862648 -6.7259508055370665 -2.8432059299090637 1 0 0
1317 295 2 0.5564 -11.316068577896178 -6.484123329458795 -1.9293818811549577 1 0 0
1180 250 1 -1.1128 -4.524783068279765 -3.4279023162019993 -3.946701009331457 1 0 0
549 39 2 0.5564 -4.410160224426216 -6.625192107085688 -6.905950930224477 0 0 0
453 7 2 0.5564 -10.57229918909048 -8.39119355360227 -7.303208932578067 1 0 0
759 109 2 0.5564 -6.492611474218974 -9.030176779982444 -1.8221602042705498 1 -1 0
1482 0 4 -1.1 -6.946719345399021 -11.061533173521433 -1.6858879744550346 0 0 0
1464 0 3 1.1 -5.667724139900955 -11.448238758379377 -3.707900766450886 0 0 0
779 116 2 0.5564 -7.389203488723974 -6.277629098795658 -0.7093645325266704 2 0 0
1306 292 1 -1.1128 -9.812168324415227 -8.597266226072515 -1.052770154239809 2 0 0
1308 292 2 0.5564 -10.216929406289278 -7.815904650110401 -1.4294285831767037 2 0 0
1331 300 2 0.5564 -10.832168090190692 -2.7140688823265915 -2.5935398856555754 1 -1 0
778 116 1 -1.1128 -7.992579910837073 -5.557816457313106 -0.524853958942446 2 0 0
579 49 2 0.5564 -7.769941205759458 -3.3212151118776885 -3.3553141945294764 2 0 0
1424 331 2 0.5564 -7.84553391903634 -5.93692113445991 -4.04539762923325 0 0 0
780 116 2 0.5564 -7.431592195920443 -4.849336955676814 -0.20928318746877728 2 0 0
1091 220 2 0.5564 -4.87390105402545 -8.74433506509894 -4.06899565817232 2 0 0
1425 331 2 0.5564 -7.110082810340998 -7.137074265447287 -4.602759535026946 0 0 0
578 49 2 0.5564 -8.196346152861924 -4.404555514629898 -2.3876100803731726 2 0 0
577 49 1 -1.1128 -8.088435150880072 -4.223233395300646 -3.321264109064764 2 0 0
966 178 2 0.5564 -5.806580441037814 -1.1175706357580353 -6.6670405523625895 0 0 0
1423 331 1 -1.1128 -7.493379215891325 -6.791505780250668 -3.796592359486427 0 0 0
1335 301 2 0.5564 -9.722059381422309 -4.2330661202315705 -4.086930788774374 1 0 0
658 76 1 -1.1128 -7.729014715087003 -0.7957813299759801 -4.517970100039078 1 -1 0
1378 316 1 -1.1128 -10.821067959899265 -5.920694490786045 -0.2911137251056877 2 1 0
542 37 2 0.5564 -10.09738782781497 -11.137936402203438 -6.702425120524808 0 0 0
806 125 2 0.5564 -11.299923891012579 -11.635212126055535 -1.2634790580437192 1 0 0
95 0 5 0 7.334032510854555 -12.089728261445405 -9.023415317634255 0 0 0
1130 233 2 0.5564 -2.491296590903947 -10.091278052417978 -0.12319841591513776 0 0 0
37 0 5 0 -0.8482489520750309 -12.050714470431709 -13.039636403284636 0 0 0
762 110 2 0.5564 -12.032621559822669 -9.43818707990773 -4.751209272503835 2 -1 0
761 110 2 0.5564 11.959942506761001 -10.082542316509318 -3.403813181545099 1 -1 0
1307 292 2 0.5564 -9.044451685878458 -8.268200407885827 -0.5852634375342339 2 0 0
33 0 5 0 -4.85460590955029 -12.042518734853868 -13.029909472742865 0 0 0
805 125 1 -1.1128 -10.57519963377074 -11.416451704072378 -0.6776953480939758 1 0 0
1400 323 2 0.5564 -6.024681629600667 -5.755819339857 -2.9297762707584067 1 0 0
548 39 2 0.5564 -4.070789462303676 -5.212554865919827 -6.480300762905845 0 0 0
903 157 2 0.5564 -3.5606209198528656 -0.5439944509844804 -6.627457422484343 0 0 0
984 184 2 0.5564 11.971754084113023 -1.0111708142201838 -6.46824292051056 -1 0 0
35 0 5 0 -2.8034492667851363 -12.071033531721469 -11.02454523042718 0 0 0
700 90 1 -1.1128 11.533632642587738 -0.35894195584949706 -0.9321614987510053 0 -1 0
659 76 2 0.5564 -7.403396080070002 -0.19287269472484417 -5.1863315432967605 1 -1 0
1181 250 2 0.5564 -4.165207730956918 -2.7453487045807767 -3.380076599941055 1 0 0
482 17 2 0.5564 -4.023806028057659 -10.561954395195885 -6.912627556706489 0 0 0
29 0 5 0 -8.883163331981558 -12.071294324827788 -12.958587770171457 0 0 0
714 94 2 0.5564 -10.450279635683282 -0.4766372288337755 -2.9852835722238726 1 0 0
91 0 5 0 -0.8129464459017592 -12.077941763923898 -9.001072017478474 0 0 0
1332 300 2 0.5564 -10.867121888415925 -2.509042811340112 -1.093993922220221 1 -1 0
1330 300 1 -1.1128 -10.685168266748912 -2.05391657041032 -1.9161768333010385 1 -1 0
682 84 1 -1.1128 -4.89307076573364 -1.147251509976293 -0.17580226511726593 2 0 0
1182 250 2 0.5564 -4.946756172442857 -4.041446094762375 -3.3452599861973025 1 0 0
897 155 2 0.5564 -10.166348538033041 -0.5364020118966605 -6.6477114120544885 0 0 0
651 73 2 0.5564 1.1219197447872666 -11.370294507711314 -0.23824675203638201 0 0 0
1131 233 2 0.5564 -2.476805627745859 -9.627564694928482 -1.5642589740658168 0 0 0
445 5 1 -1.1128 0.9556551173118862 -11.72453873522335 -6.333010718134035 0 0 0
493 21 1 -1.1128 9.790099453731887 -3.9854649548191827 -6.29281658145633 0 0 0
581 50 2 0.5564 11.989748715139019 -6.849724799702652 -6.451370677837591 -1 0 0
93 0 5 0 3.2268560872011447 -12.096349337513063 -8.895248939159892 0 0 0
1015 195 1 -1.1128 5.402722347080801 -0.09679159076720754 -6.67169091446183 0 0 0
41 0 5 0 3.1900783123564214 -12.027574709473587 -13.132195632121272 0 0 0
47 0 5 0 9.317250639998981 -12.056058485830182 -10.958818130485383 0 0 0
543 37 2 0.5564 -11.542155322010156 -11.589388764391643 -6.675362259185325 0 0 0
45 0 5 0 7.361798637465193 -12.034923126012645 -12.98636364229058 0 0 0
660 76 2 0.5564 -7.155353075061182 -0.6522096633645723 -3.765281872949594 1 -1 0
1095 221 2 0.5564 -0.21610958502704794 -1.4052278638869395 -3.569344879930934 0 0 0
1399 323 1 -1.1128 -5.187186477540529 -5.5800151702401575 -2.5009170987053566 1 0 0
1415 328 2 0.5564 3.3917463652133772 -11.743963761855081 -3.9857594032779664 1 0 0
43 0 5 0 5.2620632920958155 -12.100666107525063 -10.958003596630105 0 0 0
1129 233 1 -1.1128 -2.3994043513065897 -9.307803321257072 -0.6653742459429126 0 0 0
996 188 2 0.5564 3.2236410180599595 -3.8372995707405093 -0.23827320091996124 1 0 0
507 25 2 0.5564 3.0504206921124575 -7.2718441913595395 -0.295652022403319 1 0 0
555 41 2 0.5564 10.329854585958758 -11.302675814484534 -0.7320965067188051 -1 0 0
1018 196 1 -1.1128 10.337257566591797 -7.2783921969334955 -0.6969519515378784 1 0 0
1103 224 2 0.5564 0.9208667707606061 -8.22680145249303 -0.20073148192780904 1 1 0
1179 249 2 0.5564 6.968554570090625 -11.499674904493292 -0.2133223470109444 1 0 0
1233 267 2 0.5564 3.317486246715494 -11.09264761541706 -1.2122712390192187 1 0 0
1231 267 1 -1.1128 2.436692908595537 -10.761253594842048 -1.3872584116973075 1 0 0
1401 323 2 0.5564 -4.54581295531049 -6.067358466194723 -3.0179974054430923 1 0 0
636 68 2 0.5564 -2.662028130228647 -10.56212858637148 -3.542039027705462 0 0 0
505 25 1 -1.1128 3.803750705394336 -7.009141385893431 -0.8245249264311798 1 0 0
706 92 1 -1.1128 -1.8318493870363055 -1.6836217336238615 -2.8559909281701583 0 0 0
1166 245 2 0.5564 -1.926704878452307 -5.320979000862609 -3.8623122654668687 1 -1 0
800 123 2 0.5564 -0.03664302922912338 -6.518835759811904 -4.570479268805471 0 1 0
1219 263 1 -1.1128 3.3854517008135923 -7.08379276843765 -3.4650961950575505 1 1 0
1290 286 2 0.5564 -0.7367296338192459 -8.794469557968178 -1.1500652472932174 1 0 0
801 123 2 0.5564 0.3970405087424929 -7.332528401296122 -3.3697627457031007 0 1 0
1165 245 1 -1.1128 -1.8721934884512814 -4.3656897017129825 -3.836181976093435 1 -1 0
642 70 2 0.5564 -3.259640866133816 -7.216047420962383 -4.845035499586194 1 -1 0
1167 245 2 0.5564 -2.544401788556585 -4.070066659234384 -4.450162148217366 1 -1 0
641 70 2 0.5564 -2.6995243217634854 -7.740498372188908 -3.5400005883342556 1 -1 0
640 70 1 -1.1128 -3.2064286160842608 -7.017790512657591 -3.910105494475265 1 -1 0
1200 256 2 0.5564 3.286217491093409 -3.3528376467827785 -4.152561548200292 0 0 0
1366 312 1 -1.1128 0.47116830934043324 -10.657198754365076 -3.6524483346637275 0 0 0
1198 256 1 -1.1128 2.4474652681597187 -3.210467544905229 -3.7138556764565647 0 0 0
968 179 2 0.5564 -2.1728447115128846 -8.655123880180918 -6.447659470027465 0 0 0
887 152 2 0.5564 -0.38043157756055024 -1.7730432819941433 -5.665478785757271 0 0 0
62 0 5 0 1.2173928291709215 -5.8758178558671466 -12.93969818251104 0 0 0
294 0 5 0 -2.696650949340942 -1.8809300447836321 -8.96147661955661 0 0 0
64 0 5 0 -0.8325501609766093 -5.958104652567456 -10.908882269507494 0 0 0
59 0 5 0 -2.855360415151314 -8.059597939298488 -10.97012100647664 0 0 0
232 0 5 0 -0.7867879531401188 -1.871759925657042 -10.96027752289593 0 0 0
885 151 2 0.5564 -2.1043669460669294 -3.2531573580944397 -6.460565218300676 0 0 0
889 153 1 -1.1128 1.2661573183881023 -3.859735800200274 -6.466830165795803 0 0 0
883 151 1 -1.1128 -2.8745827735966207 -3.821488455076084 -6.457948453864338 0 0 0
884 151 2 0.5564 -3.61773210341698 -3.2186554070549227 -6.48131882805133 0 0 0
1058 209 2 0.5564 2.1084864662524128 -7.54420313942196 -7.023569154351322 0 0 0
530 33 2 0.5564 0.11144011314752417 -9.254696178283163 -6.842822532479617 0 0 0
969 179 2 0.5564 -3.5938693952942216 -8.546726899990766 -6.958377056169228 0 0 0
531 33 2 0.5564 -0.5563056520214682 -10.586947932882543 -6.57614436114897 0 0 0
551 40 2 0.5564 -1.11118346682602 -6.6854444991299395 -6.562988694173218 0 0 0
967 179 1 -1.1128 -2.884514525669062 -8.028470490168395 -6.5783097177147765 0 0 0
529 33 1 -1.1128 -0.690278611901375 -9.642877189338652 -6.492388041130474 0 0 0
550 40 1 -1.1128 -0.8669879957800896 -5.78143117504849 -6.364600249621808 0 0 0
1059 209 2 0.5564 1.4151172040709392 -7.868405295414196 -5.717418676794539 0 0 0
1057 209 1 -1.1128 1.542589914788781 -8.194903842584042 -6.608138454773072 0 0 0
890 153 2 0.5564 0.5927345903517188 -4.5376256379768485 -6.52328323044639 0 0 0
552 40 2 0.5564 -1.7014608699774827 -5.319123022636925 -6.286154763388391 0 0 0
295 0 5 0 -0.8917942649439663 -3.9353725424427046 -8.924374177398887 0 0 0
891 153 2 0.5564 1.2838955569447879 -3.615546354000011 -5.541471244542827 0 0 0
102 0 5 0 -2.8047219121393816 -5.993320486916731 -8.882060268068566 0 0 0
104 0 5 0 1.1862485780238536 -5.974924321692803 -8.958844758613877 0 0 0
103 0 5 0 -0.8245836462211655 -8.019760513529558 -9.020121074077306 0 0 0
90 0 5 0 -2.828773322144637 -9.97503045204787 -8.925696944075947 0 0 0
92 0 5 0 1.2146516657107782 -10.009401051268313 -9.063129929154526 0 0 0
63 0 5 0 1.1873107029431473 -7.978475930422751 -10.942305555097498 0 0 0
34 0 5 0 -2.7876544603377704 -10.03349621697612 -13.05962773666438 0 0 0
227 0 5 0 -2.856933932203273 -3.843537405803938 -10.948862016165391 0 0 0
231 0 5 0 1.1185185926977752 -3.892426811512345 -11.008035092900041 0 0 0
40 0 5 0 -0.8238322162817233 -10.03689353183958 -10.984291127418329 0 0 0
296 0 5 0 1.1774798717531467 -1.8746475266645057 -9.004173435044555 0 0 0
886 152 1 -1.1128 -0.7861809509408705 -2.093501952956168 -6.471027694483393 0 0 0
888 152 2 0.5564 -0.0964517579787785 -2.597205119096964 -6.903221952026435 0 0 0
38 0 5 0 1.1612283029817057 -10.002154240932759 -12.93556856220316 0 0 0
58 0 5 0 -2.819887330410535 -5.912716109765898 -12.872278799810687 0 0 0
230 0 5 0 1.2230746338934397 -2.0304551927986387 -13.054369138342196 0 0 0
61 0 5 0 -0.8002192638809752 -7.939511966065177 -12.873384627722535 0 0 0
226 0 5 0 -2.8637856212797703 -1.9079694717920797 -12.952489005643365 0 0 0
229 0 5 0 -0.867005638227449 -3.8767850073300525 -12.998838905060435 0 0 0
65 0 5 0 3.1706495481654726 -8.023601568196502 -12.951285714643147 0 0 0
297 0 5 0 3.1773417007088405 -3.89948177306793 -9.076239474818406 0 0 0
233 0 5 0 3.287681561319472 -4.048837740343064 -13.137478071049488 0 0 0
236 0 5 0 3.212638378755433 -1.995161347034064 -11.107982753856067 0 0 0
44 0 5 0 3.1860186509325614 -10.076820877864657 -10.977468852227991 0 0 0
68 0 5 0 3.214748024082577 -5.9463742082688436 -10.955345262356582 0 0 0
472 14 1 -1.1128 3.5745457649573322 -10.029674082151049 -6.67142568401256 0 0 0
105 0 5 0 3.2952368494492816 -8.057676558251513 -8.870504623983768 0 0 0
490 20 1 -1.1128 3.4629032650616436 -2.216347660869822 -6.605330322062948 0 0 0
487 19 1 -1.1128 3.3868189481986004 -5.61679763882134 -6.800674006724776 0 0 0
492 20 2 0.5564 2.683171645769026 -2.769560645423118 -6.652226534163474 0 0 0
1199 256 2 0.5564 2.6432186719518835 -2.580236512263128 -3.0205134818324706 0 0 0
473 14 2 0.5564 2.742226648311676 -9.591021142413009 -6.847642861863148 0 0 0
853 141 1 -1.1128 0.030233488180027225 -3.7199866091465745 -2.1703989918622275 1 0 0
854 141 2 0.5564 -0.6522447829517936 -4.027348986051601 -2.767040654617473 1 0 0
855 141 2 0.5564 0.8403839002281706 -3.7917496053942314 -2.6751191219494843 1 0 0
488 19 2 0.5564 2.6620833998976052 -5.019497317675864 -6.985651145466288 0 0 0
1288 286 1 -1.1128 0.01869020539807411 -8.530261966608467 -1.6751941867129325 1 0 0
1368 312 2 0.5564 0.608951894880331 -10.864159620481317 -4.576794245456499 0 0 0
908 159 2 0.5564 2.1842977725899706 -0.6925422284353477 -6.716740484051885 0 0 0
1270 280 1 -1.1128 2.884523106926786 -1.1186970355456265 -1.8446627980218202 1 1 0
708 92 2 0.5564 -1.638086561790174 -2.6031253688385685 -2.673776403294933 0 0 0
1272 280 2 0.5564 3.4548187517052327 -1.5134827289342356 -1.1850089981670726 1 1 0
799 123 1 -1.1128 0.6585420756660941 -7.0992308877318395 -4.260503116811459 0 1 0
474 14 2 0.5564 3.5671733582846046 -10.188145238523047 -5.727463638847999 0 0 0
1289 286 2 0.5564 0.13737323444065905 -9.244521124928038 -2.301277915454675 1 0 0
1367 312 2 0.5564 0.35960866607868713 -11.508801465801744 -3.229887586710608 0 0 0
902 157 2 0.5564 -2.0557463937957183 -0.6899952294199015 -6.704478219423656 0 0 0
707 92 2 0.5564 -1.9001756216945616 -1.2770098432775214 -1.992145181719384 0 0 0
1220 263 2 0.5564 2.7230414403092262 -6.532248577501837 -3.881314611017497 1 1 0
1271 280 2 0.5564 2.0262189200100287 -1.0728546512176218 -1.4234290386924717 1 1 0
995 188 2 0.5564 2.915450255786529 -5.276549713878204 -0.592496322295275 1 0 0
635 68 2 0.5564 -1.3010368330465645 -9.916533655372824 -3.6930610767705634 0 0 0
634 68 1 -1.1128 -2.224265149343317 -9.710907582371005 -3.5460730545333656 0 0 0
506 25 2 0.5564 3.514536033398615 -7.126931246456668 -1.729350832949196 1 0 0
489 19 2 0.5564 4.04403939948618 -5.070454526618488 -6.369615716708526 0 0 0
1232 267 2 0.5564 2.4978165860817865 -10.364449122694158 -2.256190288949377 1 0 0
1142 237 2 0.5564 -4.929423791012258 -5.734587143008286 -0.8158298048444433 2 0 0
909 159 2 0.5564 1.4095999064208473 -0.37606029616485787 -5.455163878295553 0 0 0
25 0 5 0 11.327551038245424 -12.088604537306551 -13.026014034955832 -1 0 0
27 0 5 0 -10.89161371162986 -12.01757044082252 -11.088973837467051 0 0 0
1439 336 2 0.5564 6.9296890355358025 -9.482404323990782 -4.815145389071264 1 0 0
459 9 2 0.5564 10.677598030807161 -10.663105203608376 -6.502210257769999 -1 0 0
1254 274 2 0.5564 3.588072903141671 -8.872814779345973 -3.7391558056622776 0 1 0
1380 316 2 0.5564 -9.894839319404625 -5.7104538444185495 -0.17220210484374784 2 1 0
1093 221 1 -1.1128 0.5146892064277757 -1.3409394153765122 -4.184187248540911 0 0 0
1253 274 2 0.5564 4.646064213044159 -9.93385803749022 -3.522971525495364 0 1 0
1094 221 2 0.5564 1.1334688175732592 -2.0103916404327324 -3.8923267661670233 0 0 0
289 0 5 0 11.278665393651439 -3.8930567472230098 -8.986736888841467 -1 0 0
1477 0 4 -1.1 5.079376615532653 -3.7642031718770896 -4.8819297936700075 0 0 0
517 29 1 -1.1128 9.497132289162467 -11.780047161483031 -6.442608294164767 -1 0 0
599 56 2 0.5564 7.689098690833968 -3.623547521274552 -3.2649808461222958 1 -1 0
701 90 2 0.5564 -12.095898701656695 -1.064114408824701 -1.1473326744723003 1 -1 0
743 104 2 0.5564 9.665410456585802 -4.719724492254763 -0.28960403998216017 0 0 0
600 56 2 0.5564 9.019214066916966 -4.34448460840281 -3.2107538307078918 1 -1 0
299 0 5 0 7.279754544354619 -3.998923444550588 -9.103804729687607 0 0 0
39 0 5 0 1.2603533761618404 -12.067183611962355 -10.958846456592445 0 0 0
582 50 2 0.5564 11.881029588629298 -5.3498990626263225 -6.626292238880491 -1 0 0
46 0 5 0 9.348383977848098 -10.007222367200402 -13.11138167586715 0 0 0
94 0 5 0 5.205388350183182 -10.103194525415208 -9.072567148125563 0 0 0
457 9 1 -1.1128 11.344944139045497 -9.991287347004699 -6.641982724052625 -1 0 0
1213 261 1 -1.1128 8.32913597145648 -1.171182188346139 -1.5286410781053041 1 0 0
237 0 5 0 7.332930618331841 -3.9599697654644817 -13.14454532700927 0 0 0
31 0 5 0 -6.916123095660787 -12.007589176114877 -11.022594585110118 0 0 0
963 177 2 0.5564 9.454097004153464 -8.224973970158391 -5.624523962357087 -1 0 0
1221 263 2 0.5564 4.214518561041306 -6.640662986251942 -3.64543856395451 1 1 0
1215 261 2 0.5564 8.223402383668834 -0.8837306326197513 -0.6217656793962557 1 0 0
491 20 2 0.5564 4.098410930931062 -2.738350855924268 -6.115557012909382 0 0 0
589 53 1 -1.1128 6.577300322454726 -5.147737991954136 -0.9692444564545691 1 0 0
434 1 2 0.5564 10.559200898794284 -5.723745403235957 -1.7258329862262245 -1 0 0
541 37 1 -1.1128 -10.647281124527945 -11.907771701591669 -6.556798886897144 0 0 0
913 161 1 -1.1128 7.240369389566155 -2.0624699718826114 -6.768309148412811 0 0 0
1252 274 1 -1.1128 3.780772656370358 -9.795088174600538 -3.908006410265645 0 1 0
983 184 2 0.5564 10.547791377543273 -1.2039921794047577 -6.944738561688165 -1 0 0
556 42 1 -1.1128 9.041224466614043 -0.21148616975774673 -6.581385614776241 0 0 0
611 60 2 0.5564 5.960335404000098 -10.137374371849551 -1.0958386941395295 1 0 0
580 50 1 -1.1128 11.351901785746048 -6.137804787082246 -6.501926057881445 -1 0 0
962 177 2 0.5564 9.92114006308889 -7.27050418150726 -6.70283302943744 -1 0 0
1145 238 2 0.5564 10.667598133456359 -1.6756005975356414 -4.711777716426625 0 0 0
467 12 2 0.5564 4.718334257594998 -8.560359299908427 -6.286615819305585 0 0 0
42 0 5 0 5.227064750947866 -10.04974323148516 -12.945874307911955 0 0 0
610 60 1 -1.1128 6.02533510464844 -10.653293438317656 -1.8994764751991444 1 0 0
477 15 2 0.5564 6.819957511520338 -9.753841963498672 -7.409971940083667 -1 0 0
612 60 2 0.5564 6.494673066912592 -10.08625857432546 -2.5113818576453877 1 0 0
590 53 2 0.5564 7.3699957997173176 -4.951096915471661 -0.4700385056614614 1 0 0
1160 243 2 0.5564 5.586263448405926 -2.7268711400783157 -2.742449759354311 1 0 0
72 0 5 0 7.29680120872973 -5.935042005773808 -11.113744334331175 0 0 0
476 15 2 0.5564 6.769588305831625 -11.014417343048311 -6.5731277604706975 -1 0 0
1455 341 2 0.5564 8.82944252715222 -9.070352188033779 -3.3339798219920045 0 1 0
1139 236 2 0.5564 6.316254711024755 -6.433476850473489 -2.32413553514203 1 0 0
1140 236 2 0.5564 5.973824405794249 -6.070065781360419 -3.753319806169228 1 0 0
71 0 5 0 9.301473122941664 -8.024986096272908 -11.021848590641051 0 0 0
961 177 1 -1.1128 9.332622472239805 -8.009617919321188 -6.549239467507143 -1 0 0
470 13 2 0.5564 6.61174335421155 -6.918100391662947 -6.5003226856070055 0 0 0
1016 195 2 0.5564 4.662749111876051 -0.6896704745300326 -6.802688875076344 0 0 0
519 29 2 0.5564 8.70142161199508 -11.248759242368504 -6.414300963604024 -1 0 0
1490 0 4 -1.1 11.370548107317685 -11.787045051551242 -2.437055145319712 1 0 0
97 0 5 0 11.310637658767664 -7.978556632790463 -9.134592354675942 -1 0 0
469 13 1 -1.1128 7.302345589213184 -6.269139072608106 -6.365621619491209 0 0 0
684 84 2 0.5564 -5.195247719422543 -0.8414413206615986 -1.0310199505197202 2 0 0
1146 238 2 0.5564 9.650412676425985 -2.077323752567084 -3.6649456852585316 0 0 0
298 0 5 0 5.298762611640159 -1.9904459203528984 -9.102223338947834 0 0 0
1138 236 1 -1.1128 6.2793843518613945 -6.79593794864988 -3.2092886124119193 1 0 0
1161 243 2 0.5564 6.289616337376383 -3.5439027262551805 -1.6795993294144613 1 0 0
471 13 2 0.5564 8.109512140648148 -6.782182504644132 -6.326798953295097 0 0 0
1453 341 1 -1.1128 9.632079018981791 -8.604819264745043 -3.0988605310212183 0 1 0
495 21 2 0.5564 10.354313173227187 -3.224194410304308 -6.428329947732722 0 0 0
85 0 5 0 11.328436593174684 -12.062007734904691 -9.090456307131253 -1 0 0
220 0 5 0 11.318864473214802 -1.9456406812973062 -11.022546981797083 -1 0 0
598 56 1 -1.1128 8.519702241175382 -3.715730339957956 -3.7317049048209903 1 -1 0
475 15 1 -1.1128 7.204566787917218 -10.164033851918617 -6.635345419294109 -1 0 0
66 0 5 0 5.222670272909959 -6.033182144299457 -13.04042624214616 0 0 0
108 0 5 0 9.28455703099755 -5.956178915427086 -9.055400542716223 0 0 0
435 1 2 0.5564 11.31406952664791 -5.072135766688739 -2.8649013909533516 -1 0 0
69 0 5 0 7.198051142659815 -8.003818224224409 -12.99086251814249 0 0 0
238 0 5 0 9.408985323283808 -1.9761141066729069 -13.187864814241433 0 0 0
1438 336 1 -1.1128 7.14295347438736 -9.329783543787899 -3.894571982911711 1 0 0
217 0 5 0 11.343947786265097 -3.924442649111089 -13.102410119385006 -1 0 0
466 12 1 -1.1128 5.102937538423589 -7.684337257316202 -6.316552965785532 0 0 0
1454 341 2 0.5564 10.337832821238072 -9.165267297213255 -3.421423024370289 0 1 0
1159 243 1 -1.1128 6.20870190935397 -2.652586077391286 -2.0190699925409006 1 0 0
48 0 5 0 7.289649493420282 -10.116974918670484 -11.040114481757673 0 0 0
28 0 5 0 11.343523424529389 -9.969304859759053 -11.056582066376611 -1 0 0
234 0 5 0 5.212145326662615 -1.9760577013237959 -13.063013128114934 0 0 0
239 0 5 0 9.33161340162871 -3.913645913203712 -11.183398260517384 0 0 0
1214 261 2 0.5564 7.603906723697201 -1.7787694041244044 -1.6739185008207702 1 0 0
300 0 5 0 9.191527135524563 -1.8822344968784892 -9.073305200791657 0 0 0
67 0 5 0 5.170072618700887 -8.030811111999741 -11.013843331575305 0 0 0
914 161 2 0.5564 6.49631208355609 -1.4621749308831664 -6.7208832915767145 0 0 0
458 9 2 0.5564 10.858256779161032 -9.167071029404173 -6.64760304327162 -1 0 0
433 1 1 -1.1128 10.594593809302095 -4.924326691476743 -2.2511042914202504 -1 0 0
107 0 5 0 7.3067930239440955 -8.035878076133526 -9.067102411916363 0 0 0
1440 336 2 0.5564 6.854025551864735 -8.432785005632917 -3.726811992290493 1 0 0
70 0 5 0 9.306443528360647 -5.949748550591863 -13.1068764842662 0 0 0
52 0 5 0 11.339887352814404 -5.9351399544299825 -11.037725394002857 -1 0 0
1019 196 2 0.5564 10.222279113979312 -7.8949281372321956 -1.4200675229363313 1 0 0
235 0 5 0 5.318229695798594 -4.033490332951848 -11.017805781878645 0 0 0
1144 238 1 -1.1128 10.388901321097382 -1.4872737584853615 -3.81562008678037 0 0 0
1020 196 2 0.5564 10.952167975255302 -7.713323587647319 -0.10622632622890493 1 0 0
49 0 5 0 11.34809188850169 -7.875897997779695 -13.101119670861006 -1 0 0
468 12 2 0.5564 4.424183395984362 -7.137636092052348 -6.7123250431376364 0 0 0
106 0 5 0 5.255163581297285 -5.981805512193203 -9.091891785799882 0 0 0
96 0 5 0 9.309413068464025 -10.055632677247374 -8.96258027782511 0 0 0
494 21 2 0.5564 10.368525807275315 -4.737985486225727 -6.416812874384359 0 0 0
982 184 1 -1.1128 11.282574526099292 -1.6707998614870068 -6.546731531377033 -1 0 0
915 161 2 0.5564 8.009750880270555 -1.4964337656055446 -6.705900992732604 0 0 0
1462 0 3 1.1 7.402591950472042 -4.009614568826808 -5.8477268974948755 0 0 0
240 0 5 0 7.259376697621902 -1.9663250769707967 -11.100666917364409 0 0 0
715 95 1 -1.1128 -5.87779590950782 -0.10348463417929671 -2.4761730033313065 2 0 0
1261 277 1 -1.1128 0.611809332673762 -1.2603961961311596 -0.19997749670772322 1 0 0
901 157 1 -1.1128 -2.7461472026109246 -0.05155997217254355 -6.5256354298484744 0 0 0
1478 0 4 -1.1 -6.8317858819090675 -11.983797047760978 -5.802439543126074 0 0 0
683 84 2 0.5564 -3.991187140150556 -0.8326889461176249 -0.11338640722849463 2 0 0
591 53 2 0.5564 5.941093594532207 -5.42493218996027 -0.30997830550765926 1 0 0
907 159 1 -1.1128 1.6232759348374575 -0.02609069090648223 -6.320087801366832 0 0 0
994 188 1 -1.1128 2.538039656647071 -4.502272212759757 -0.17501571758958218 1 0 0
464 11 2 0.5564 4.845280939432884 -11.801622608964315 -6.6390956721686125 0 0 0
1262 277 2 0.5564 -0.24974428330620158 -0.8499486144630557 -0.2740184984013103 1 0 0
89 0 5 0 -4.819566404526423 -12.084125028599239 -9.03676637782831 0 0 0
1479 0 4 -1.1 -1.9321779406309847 -0.006130329564535824 -0.4468202374362928 0 -1 0
1013 194 2 0.5564 4.767211875795095 -8.422144087994429 -0.16135517655069806 1 0 0
710 93 2 0.5564 8.330543457572876 -7.628030042415138 -0.08108941628402688 1 0 0
1184 251 2 0.5564 -5.792164816126605 -2.667722967379405 -0.045064146904385885 1 0 0
687 85 2 0.5564 -8.344571649115348 -8.538298410881263 5.920540659319503 0 0 0
685 85 1 -1.1128 -7.791373127468902 -8.040499966198652 6.522536083229367 0 0 0
686 85 2 0.5564 -6.98058558575241 -8.546322146587979 6.577331122966285 0 0 0
850 140 1 -1.1128 -7.7667824653580215 -4.328961590575962 6.711507535936501 1 0 0
852 140 2 0.5564 -7.030566039713175 -3.717735991428639 6.686468683736324 1 0 0