LAMMPS data file via write_data, version 2 Aug 2023, timestep = 50000, units = real

1500 atoms
7 atom types
1000 bonds
6 bond types
500 angles
9 angle types
0 dihedrals
3 dihedral types

-13.64618185752291 13.64618185752291 xlo xhi
-13.64618185752291 13.64618185752291 ylo yhi
-13.64618185752291 13.64618185752291 zlo zhi

Masses

1 15.9994
2 1.008
3 12.011
4 15.9994
5 1.008
6 15.9994
7 1.008

Pair Coeffs # lj/cut/coul/long

1 0.119432 3.40025
2 0 0
3 0.252656 2.84916
4 0.0663016 3.58118
5 0.0282937 2.37341
6 0 0
7 0.119497 3.1

Bond Coeffs # harmonic

1 442.161 0.972
2 1109.29 1.12
3 399.792 1.43
4 400.034 1.53
5 179.254 0.971
6 155.354 1.42

Angle Coeffs # harmonic

1 47.5559 103
2 30.1731 109.5
3 47.694 109.5
4 55.1139 111
5 65.472 111.3
6 54.9931 110.3
7 55.0234 111.4
8 180.46 109
9 30.1731 110

Dihedral Coeffs # harmonic

1 0.301147 1 3
2 1.41491 1 3
3 0 1 1

Atoms # full

90 30 2 0.413 -1.5947768183326954 -7.7671870658064535 -10.924392188618729 -1 0 0
63 21 2 0.413 -5.779960916090705 -7.414494213409346 -8.910053766827533 0 -1 -1
1149 383 2 0.413 -8.56284387304634 -2.154079447820834 -1.4010036334135112 0 0 0
167 56 2 0.413 -11.898856025220281 -11.114842863132292 -1.9127894620919061 0 1 0
486 162 2 0.413 -1.797761403046783 -2.6381057895647473 -12.540028676026028 0 0 0
1239 413 2 0.413 -7.109996907332805 -13.052100056933188 -9.51407775470169 1 1 0
1148 383 2 0.413 -7.69890863019516 -1.4040339005073577 -0.5211082267568905 0 0 0
942 314 2 0.413 -13.58724020470682 -4.391915501597552 -2.130253540561199 1 0 0
1361 454 2 0.413 -11.94838534462401 -9.400089111210477 -13.290818414157094 1 1 2
1137 379 2 0.413 -10.79382183316472 -13.53108857583648 -5.206182441502776 0 1 0
484 162 1 -0.826 -1.9381010926832047 -1.677785367912227 -12.65096023244957 0 0 0
1478 493 2 0.413 -8.27706559538845 -6.415897768252655 -5.403785888467157 0 1 0
374 125 2 0.413 -5.354690702913519 -3.0484074792561646 -11.935015273671123 0 1 -1
809 270 2 0.413 -0.32862751936180956 -10.76218326068657 -9.806169217837748 1 0 0
994 332 1 -0.826 -3.435519296811208 -11.410671602688996 -11.535107990468015 0 0 1
688 230 1 -0.826 -10.178609959745376 -5.737264965178338 -2.2520347647645664 0 0 1
549 183 2 0.413 -12.041834943266657 -2.426101744091387 -0.5990644617682701 -1 0 0
1003 335 1 -0.826 -0.42989880414812554 -6.317450875331305 -4.9939047830314465 0 -1 1
242 81 2 0.413 -13.361626195749748 -3.387785172378706 -9.637644271047872 0 -1 1
1098 366 2 0.413 -13.309731621518084 -8.02703249446171 -8.704974387131362 1 0 2
1215 405 2 0.413 -9.024875759972847 -1.604496783761432 -4.387113030224489 1 2 0
62 21 2 0.413 -5.278662274867141 -8.696148134193486 -8.491881888265029 0 -1 -1
1176 392 2 0.413 -0.5460352897581533 -13.071160882597603 -7.31178025197653 0 0 0
578 193 2 0.413 -2.439209854234578 -11.195481212848312 -0.7192854023000539 0 1 0
810 270 2 0.413 -0.685970127308849 -10.9315054894815 -8.328729384454762 1 0 0
166 56 1 -0.826 -11.582151557049098 -10.162090436552258 -1.9808915209932465 0 1 0
1477 493 1 -0.826 -9.178002203107404 -6.570157736827994 -5.872008281475918 0 1 0
656 219 2 0.413 -10.193721978086268 -4.107860129365715 -7.111776514858707 0 0 1
510 170 2 0.413 -7.338569398520136 -5.125319073326528 -7.960425759369363 0 0 0
61 21 1 -0.826 -5.105711746148655 -7.796119769930604 -8.218739832998367 0 -1 -1
1104 368 2 0.413 -10.885361095356236 -0.7841702485178654 -3.2665556159192715 1 0 0
1095 365 2 0.413 -6.085966534382339 -9.347020008041781 -1.3587416197079811 0 0 0
364 122 1 -0.826 -3.1532123013729354 -0.8823854832416504 -4.999587156804232 0 -1 0
691 231 1 -0.826 -3.2843530718271943 -7.350601356090489 -2.6885962243893164 -1 0 1
1491 497 2 0.413 -8.71708889053092 -12.587929253306928 -5.011845052846311 1 0 0
1219 407 1 -0.826 -9.18214493132552 -8.673605213300789 -3.197785057520358 0 1 0
1244 415 2 0.413 -13.398033975221994 -1.950835527837972 -5.858361447022557 0 0 1
88 30 1 -0.826 -2.1291405631371436 -7.937636526048989 -10.073803405935967 -1 0 0
823 275 1 -0.826 -4.008354107564562 -0.2312141760595381 -11.112622464583044 0 1 0
661 221 1 -0.826 -7.880787218712918 -2.187497038538144 -9.083485498405764 0 0 0
651 217 2 0.413 -9.834318519796893 -10.346181470837996 -5.016008224684569 0 1 1
509 170 2 0.413 -8.198187462057 -6.434914377162268 -7.76997911995568 0 0 0
1214 405 2 0.413 -9.643482703425963 -2.985839192335442 -4.467304556795472 1 2 0
407 136 2 0.413 -1.179813914891609 -5.112229481298266 -1.3526438797464806 -1 0 -1
879 293 2 0.413 -11.224767705892468 -0.9185387696934733 -9.764884847823671 1 -1 0
528 176 2 0.413 -3.6795197649994122 -4.549895880448249 -7.473178837772579 0 0 0
1238 413 2 0.413 -8.158128240900744 -12.53218265277411 -10.369652293518293 1 1 0
123 41 2 0.413 -3.3651722323721653 -12.6185671907801 -5.267655994733939 0 0 -1
168 56 2 0.413 -12.302076746360536 -9.738940118436004 -2.4942435794829994 0 1 0
261 87 2 0.413 -11.424695617849412 -6.131064707871661 -0.7407412015594694 0 0 0
121 41 1 -0.826 -4.02794053802039 -12.609660065278963 -5.995005624253345 0 0 -1
618 206 2 0.413 -6.358922493664941 -7.9841525607045165 -12.175906100676015 0 0 0
766 256 1 -0.826 -13.407212971873056 -12.59406106427064 -1.8274053746800636 1 0 1
995 332 2 0.413 -3.757112295714851 -12.153880113308334 -10.931069623752062 0 0 1
1235 412 2 0.413 -1.6455568039572555 -4.709707569743307 -13.543106353521019 0 0 0
616 206 1 -0.826 -7.101939875762398 -7.743506623002741 -12.81495295142841 0 0 0
603 201 2 0.413 -4.756676399828432 -13.386965375385675 -7.698987844056013 0 0 0
1153 385 1 -0.826 -0.35162346069066075 -5.519804219249751 -9.146517962780436 1 0 0
853 285 1 -0.826 -8.660651148478339 -4.810075011246511 -11.866451883665272 1 -1 -1
690 230 2 0.413 -10.17439811289282 -4.849957522317171 -1.9152773993139718 0 0 1
122 41 2 0.413 -3.385147011569437 -12.18993859140365 -6.569770194380124 0 0 -1
408 136 2 0.413 -1.7279901466342587 -6.43209386295157 -2.061090415953892 -1 0 -1
1196 399 2 0.413 -6.369541126531557 -0.6738163153482581 -3.026691486492094 0 0 1
1489 497 1 -0.826 -8.02094823431137 -11.914176816477635 -5.276135915413162 1 0 0
365 122 2 0.413 -2.8276749851918073 -1.011438971809028 -4.098561933290378 0 -1 0
375 125 2 0.413 -4.377772751744262 -3.0767001304540234 -13.12009296503884 0 1 -1
1373 458 2 0.413 -5.950557971856681 -7.049922744385893 -4.505141312103159 1 1 0
1178 393 2 0.413 -7.098182503014872 -5.588238878468996 -2.6240155026109004 0 0 1
760 254 1 -0.826 -10.781921908464568 -5.175024565507643 -9.216702432224539 1 0 0
655 219 1 -0.826 -10.744085950735588 -3.970597361575736 -6.287055295849688 0 0 1
1242 414 2 0.413 -11.633511844322877 -4.1177787698683606 -12.030601217070592 1 0 1
571 191 1 -0.826 -0.04041743380154195 -10.589743997595333 -5.571690440323675 0 1 1
1245 415 2 0.413 -12.423237210996103 -3.0920052696020566 -5.582251101410709 0 0 1
1362 454 2 0.413 -12.17021785187994 -10.803362960174079 -12.742993649481443 1 1 2
1355 452 2 0.413 -13.613373267117527 -0.16933873649774966 -0.0472197403242518 1 0 0
236 79 2 0.413 -0.09964892174497741 -2.1471387335654697 -8.82427340437992 -2 0 0
1061 354 2 0.413 -1.3343193535596196 -11.693067437340515 -4.273315640002444 0 0 0
650 217 2 0.413 -9.147515660215795 -9.76882074012288 -6.1660993995555 0 1 1
177 59 2 0.413 -2.5864980794911627 -9.62470608137168 -13.402864902450554 0 0 1
689 230 2 0.413 -9.23858374864787 -5.905619120008678 -2.4099265585282197 0 0 1
1440 480 2 0.413 -1.6857856983363586 -2.3672618119468716 -5.314708668036863 1 0 1
854 285 2 0.413 -8.013121061209555 -5.420984907441076 -11.505394996079092 1 -1 -1
527 176 2 0.413 -2.29049133994784 -5.222379998745751 -7.873981213684881 0 0 0
508 170 1 -0.826 -7.791786873122938 -5.8216767774388005 -8.485845721445726 0 0 0
1179 393 2 0.413 -6.10900990503012 -5.291597666749384 -1.5766193427999617 0 0 1
195 65 2 0.413 -11.463589909355319 -10.50708884835624 -7.70051315862069 1 0 1
92 31 2 0.413 -4.726729671004257 -2.376254728756173 -7.934067462997365 1 0 0
573 191 2 0.413 -0.4775855435236469 -9.972860681201658 -6.18379928058712 0 1 1
402 134 2 0.413 -13.393715601196087 -11.649388389071383 -5.222525053613337 0 1 -1
657 219 2 0.413 -10.760248288683497 -4.954559988660982 -6.068253497328917 0 0 1
226 76 1 -0.826 -11.711238718215569 -7.587831463628568 -13.305371892851735 0 0 1
526 176 1 -0.826 -2.7377549782145234 -4.827032979134316 -7.105979685222654 0 0 0
1097 366 2 0.413 -11.983310751538072 -8.441725322761929 -9.342439798969473 1 0 2
35 12 2 0.413 -4.409227646748857 -9.062947155595731 -11.497907360681529 -1 0 0
274 92 1 -0.826 -9.994867594818622 -13.16672250034324 -13.164595318606056 0 -1 1
1243 415 1 -0.826 -13.088716246869941 -2.5177100797873155 -5.1094372360863485 0 0 1
373 125 1 -0.826 -5.331103284320603 -3.0296536489006414 -12.90757160414775 0 1 -1
1060 354 1 -0.826 -2.1305720059367808 -12.287032527877713 -3.930733167388121 0 0 0
1177 393 1 -0.826 -7.053555733535608 -5.237658113569584 -1.704996752046723 0 0 1
808 270 1 -0.826 -0.4357184590635619 -10.207431025136275 -8.927860670856523 1 0 0
649 217 1 -0.826 -10.090000201535704 -9.897742638976124 -5.8380567418076605 0 1 1
1490 497 2 0.413 -7.343859518467018 -12.588466437219015 -5.515465291873516 1 0 0
1221 407 2 0.413 -8.882984634057337 -8.893099114155724 -2.341539782533939 0 1 0
1101 367 2 0.413 -10.115569879883228 -10.832427273072348 -10.206030580824933 1 1 1
1103 368 2 0.413 -12.208007534115225 -0.7419796568195185 -4.043087864093238 1 0 0
1236 412 2 0.413 -1.8435492073768582 -5.304445679342635 -12.118654021382305 0 0 0
1005 335 2 0.413 -1.3677292723558168 -6.438675665190858 -4.826784450527914 0 -1 1
1237 413 1 -0.826 -7.703207287248801 -13.402814316554561 -10.230838733759779 1 1 0
243 81 2 0.413 -11.915606880162354 -2.8331410966229793 -9.49785378510298 0 -1 1
761 254 2 0.413 -11.019261757370863 -6.054284151746774 -8.81022740800448 1 0 0
1029 343 2 0.413 -7.742999949767744 -0.9375854092585634 -13.349239251164155 1 -1 0
1093 365 1 -0.826 -5.431209224853106 -9.332980603340403 -2.096915311841549 0 0 0
1374 458 2 0.413 -7.13012489434889 -7.780620996141685 -3.9088916412515218 1 1 0
693 231 2 0.413 -3.883720843614377 -8.026868510215628 -2.15647874496187 -1 0 1
1469 490 2 0.413 -7.793028545612201 -11.351990864938813 -2.35988953666547 0 1 0
1213 405 1 -0.826 -9.252102082429241 -2.376920891170286 -3.770974206415099 1 2 0
124 42 1 -0.826 -12.7490459975885 -11.984194707858837 -11.101562584568708 1 0 0
957 319 2 0.413 -2.0299688209344158 -1.2803201565701094 -1.6083944124491083 0 -1 0
401 134 2 0.413 -12.049713545059547 -11.002617262391306 -4.616086105549815 0 1 -1
1100 367 2 0.413 -9.08581108833417 -10.12405200493065 -10.942433341544898 1 1 1
56 19 2 0.413 -10.413290612001457 -7.397559275565848 -11.002972955877333 1 0 0
1372 458 1 -0.826 -6.889905499353802 -6.8545345304595875 -4.136799708854905 1 1 0
577 193 1 -0.826 -1.5402053241746696 -11.53415036296689 -1.097758231320583 0 1 0
1155 385 2 0.413 -0.22297292762985066 -5.894155941188951 -8.233818014612197 1 0 0
126 42 2 0.413 -12.613851586607623 -12.887399014995358 -10.666458841883452 1 0 0
996 332 2 0.413 -3.967989123076407 -11.766752310811718 -12.292299069053506 0 0 1
548 183 2 0.413 -10.501984422346686 -2.4079025967662258 -0.677612336486872 -1 0 0
34 12 1 -0.826 -4.860784911436802 -8.21501899790206 -11.249635682553894 -1 0 0
163 55 1 -0.826 -4.194463283529206 -7.3524237569830575 -5.4341177047309674 1 0 0
1470 490 2 0.413 -7.099754700410616 -12.033838570234186 -3.475038590369339 0 1 0
1099 367 1 -0.826 -9.452530403953695 -11.063281486968233 -10.917861545619475 1 1 1
1004 335 2 0.413 -0.30271047342073487 -5.382723079015545 -5.09766169818411 0 -1 1
855 285 2 0.413 -8.898491816181025 -5.110852998207102 -12.788334692466822 1 -1 -1
955 319 1 -0.826 -1.8991780013059074 -0.8388269429069446 -2.4848238035713095 0 -1 0
57 19 2 0.413 -9.104371152218686 -7.8756396981558945 -11.355477884699924 1 0 0
1062 354 2 0.413 -1.7654418516141828 -12.474731960284874 -2.987326821793486 0 0 0
662 221 2 0.413 -8.691794963697458 -1.6547342329123023 -8.723559574623849 0 0 0
89 30 2 0.413 -1.6246071956282773 -8.629376292908537 -9.747301127454714 -1 0 0
36 12 2 0.413 -3.968917602993196 -7.934119438692457 -10.871124770280378 -1 0 0
228 76 2 0.413 -11.066948672452657 -6.94550500590175 -13.625263830575015 0 0 1
93 31 2 0.413 -5.960191278261142 -2.8704653993071823 -8.53124847826729 1 0 0
1220 407 2 0.413 -10.069774794214412 -8.434805347584005 -2.9190266983739335 0 1 0
241 81 1 -0.826 -12.795636276283783 -2.557011012344848 -9.831208343752746 0 -1 1
1096 366 1 -0.826 -12.450420778759483 -7.680134061794053 -8.998134373480116 1 0 2
164 55 2 0.413 -4.445225891373269 -7.787062423275297 -6.2842067720318475 1 0 0
1234 412 1 -0.826 -2.011208996989252 -4.532896663320011 -12.627516202719224 0 0 0
165 55 2 0.413 -3.9430482750459177 -6.475322050840556 -5.803206417515793 1 0 0
1147 383 1 -0.826 -8.557787349724446 -1.8880738135135342 -0.4438057503136683 0 0 0
956 319 2 0.413 -1.0906266828337934 -0.3608755985411083 -2.2147409133803375 0 -1 0
55 19 1 -0.826 -9.839175844495944 -8.090836861432235 -10.760782080880333 1 0 0
275 92 2 0.413 -9.938299051616863 -12.421859577012256 -12.492355083495031 0 -1 1
1293 431 2 0.413 -13.333261354496218 -5.538405874012687 -9.517229622954211 1 1 0
400 134 1 -0.826 -12.87916853239357 -11.457774566731771 -4.352716565622718 0 1 -1
811 271 1 -0.826 -13.182036452470292 -8.058037159774361 -3.114835179058847 1 0 0
1240 414 1 -0.826 -12.381642219386418 -4.186472419200944 -12.634208561375303 1 0 1
406 136 1 -0.826 -0.9109062521079831 -6.005981791286642 -1.714210005737085 -1 0 -1
91 31 1 -0.826 -5.17485173343432 -3.2043634083600985 -8.128252118159253 1 0 0
547 183 1 -0.826 -11.254136865847741 -3.039487069981357 -0.8539819380178812 -1 0 0
663 221 2 0.413 -8.243598014205118 -2.7918550274657488 -9.684568371290347 0 0 0
366 122 2 0.413 -4.095422285275044 -0.9431639650650361 -4.702035802572491 0 -1 0
825 275 2 0.413 -3.2135928942377134 -0.15152788271195838 -11.741350404151536 0 1 0
692 231 2 0.413 -3.5943616816671646 -7.434599826457254 -3.609860916959983 -1 0 1
940 314 1 -0.826 -13.613072454727194 -5.336188084387677 -1.9299915642476293 1 0 0
194 65 2 0.413 -10.561856492008685 -11.62747556470429 -8.14371801818555 1 0 1
193 65 1 -0.826 -11.108821537482985 -10.907915061998757 -8.50890640773807 1 0 1
1479 493 2 0.413 -9.629186588650889 -6.99836211605721 -5.143502197443741 0 1 0
813 271 2 0.413 -12.810526206493286 -7.16281615028031 -2.893111598846051 1 0 0
1468 490 1 -0.826 -7.020461940021193 -11.995708596174508 -2.495783300821371 0 1 0
762 254 2 0.413 -9.9514803025009 -5.326802973282506 -9.622016558143072 1 0 0
1195 399 1 -0.826 -5.477956787920618 -0.3788105516448219 -3.2751706301195895 0 0 1
1438 480 1 -0.826 -1.2218132813433638 -3.2372064535104883 -5.3369009467216095 1 0 1
877 293 1 -0.826 -10.476045168778288 -0.5960164181972711 -9.259903654664962 1 -1 0
1439 480 2 0.413 -1.7362490852992973 -3.5721107957227165 -6.152261605905641 1 0 1
125 42 2 0.413 -12.572040158621553 -11.413855418856398 -10.31179610670773 1 0 0
1354 452 1 -0.826 -12.72516419659625 -0.5956268685168329 -0.3130806166022122 1 0 0
567 189 2 0.413 -0.41607289782422896 -11.841140062123038 -12.27154100095781 0 1 0
485 162 2 0.413 -1.5016063656086729 -1.5608481372302787 -13.512584857005065 0 0 0
1094 365 2 0.413 -5.636499237542651 -10.230263353719124 -2.325206018545483 0 0 0
601 201 1 -0.826 -4.856797920184636 -13.366436494363674 -8.715682495133443 0 0 0
768 256 2 0.413 -13.446999538162194 -12.182193639764154 -2.7171264587151693 1 0 1
1241 414 2 0.413 -11.96058076626562 -4.218674809226242 -13.538659276420338 1 0 1
1174 392 1 -0.826 -1.463671158956613 -13.118479365385978 -7.701525913636658 0 0 0
824 275 2 0.413 -3.544769290932008 -0.42228592100195783 -10.250174031730259 0 1 0
1102 368 1 -0.826 -11.74371070615974 -0.2691481783487557 -3.3178562924666757 1 0 0
1382 461 2 0.413 -0.0848871937604212 -8.945507262519207 -2.4391414315067674 0 0 1
579 193 2 0.413 -0.9528374162372462 -10.948711915658677 -0.4886825269718216 0 1 0
333 111 2 0.413 -1.1940137566466973 -13.48218585519612 -0.558464119859492 0 1 1
617 206 2 0.413 -6.502240669739075 -7.764858396099566 -13.599194954800813 0 0 0
714 238 2 0.413 -13.46527529247978 -8.25053654987917 -0.00876748465598709 0 0 0
788 263 2 0.413 -1.5414939563921628 -12.459919767689664 5.127071638307312 1 0 0
519 173 2 0.413 -6.0787008667447235 -12.735406936949818 1.393388667937895 0 0 0
1429 477 1 -0.826 -5.344630472292719 -13.53829439206266 3.5864490114669483 0 0 1
777 259 2 0.413 -13.157057031267566 -6.876724647503814 8.694009167221674 1 1 0
1403 468 2 0.413 -13.236225387832526 -2.2788218826716005 8.578626244815483 1 1 -1
142 48 1 -0.826 -10.998834382430209 -8.880891956910773 6.6633309462025725 -1 0 0
1339 447 1 -0.826 -7.972067883929472 -7.659084617269454 5.601159051703354 0 1 0
789 263 2 0.413 -0.17887743638484999 -12.17054872648862 5.730403036396686 1 0 0
51 17 2 0.413 -8.08607834138407 -1.045415444282762 7.4135931585393475 1 -1 0
507 169 2 0.413 -8.243770038291807 -7.877991302082034 9.026972671887938 0 0 -1
1269 423 2 0.413 -3.842780764229669 -9.893425173714835 2.3490287847637887 0 1 0
894 298 2 0.413 -10.006630575917484 -2.0041854065140754 12.578696418304352 1 -1 0
1331 444 2 0.413 -6.4432506402571255 -7.191381585761248 3.9767463500286038 0 1 0
1217 406 2 0.413 -12.2470030820231 -5.13957500444776 5.83786720190462 0 1 -1
506 169 2 0.413 -7.645890595406437 -9.05055543209318 8.513713824912836 0 0 -1
134 45 2 0.413 -6.688459450297711 -5.124506773925599 7.464530850973032 -1 0 -1
847 283 1 -0.826 -7.64530443944868 -9.802850884789887 3.5221178858801014 0 0 -1
798 266 2 0.413 -0.5978030320803871 -4.217444337630143 3.1329818298541685 1 0 1
1066 356 1 -0.826 -8.713137822926797 -8.527198261527762 11.480798153766683 0 0 0
918 306 2 0.413 -3.3260075793876425 -0.8374378050215565 6.562985083347462 0 0 0
1455 485 2 0.413 -4.848817170626393 -8.018612777054285 11.225967917247571 0 0 0
1218 406 2 0.413 -12.382977286733283 -3.6998997151850315 5.803878366264657 0 1 -1
1402 468 1 -0.826 -13.030511241408288 -1.3039499677218878 8.574340276487186 1 1 -1
391 131 1 -0.826 -8.685085036009193 -5.07660116204775 6.766213189177746 0 1 0
107 36 2 0.413 -9.35912223636942 -12.597112100801427 4.096362173125561 0 0 0
296 99 2 0.413 -5.711885171255917 -10.803366404443215 9.139476492654383 0 0 1
349 117 1 -0.826 -4.017425513059527 -10.964128069491021 10.688697969778579 1 0 0
1330 444 1 -0.826 -5.807044191423271 -7.2043163273290824 3.2189944739765632 0 1 0
883 295 1 -0.826 -11.42024391053149 -9.457156570228726 4.038356166850653 0 1 0
892 298 1 -0.826 -10.923185911638349 -2.0746233645895114 12.082265792520927 1 -1 0
1397 466 2 0.413 -9.328283874458595 -1.9985398851494764 4.67487611656591 0 0 1
54 18 2 0.413 -4.1230112872623454 -3.632739778579948 6.4359903610597 0 -1 0
1204 402 1 -0.826 -9.959403722919307 -12.763857100786542 6.203868401717715 0 1 -1
214 72 1 -0.826 -8.519969464173354 -0.38263817966764613 10.424671729086446 0 -1 0
1411 471 1 -0.826 -1.6532530123273954 -4.346292431679064 11.422330575508616 0 1 0
482 161 2 0.413 -8.423704334217838 -5.076536193669405 0.6464746157043635 0 0 0
295 99 1 -0.826 -6.5373258773485485 -10.415249380512646 8.870884490876547 0 0 1
297 99 2 0.413 -6.965808733184039 -11.22828014539451 8.579084893973926 0 0 1
700 234 1 -0.826 -0.9339381418370092 -7.344529761688894 9.603891250465123 0 1 0
1412 471 2 0.413 -0.8361021106643136 -3.802821433822885 11.23188276236729 0 1 0
208 70 1 -0.826 -4.184428051335404 -0.9111114397039799 10.000880700660682 1 -1 0
1205 402 2 0.413 -9.095737178682352 -13.104967899875541 6.681091947100638 0 1 -1
1068 356 2 0.413 -8.92754008043447 -7.732890213332015 12.025045892862051 0 0 0
845 282 2 0.413 -6.389520704246507 -3.9305809594682586 11.444094909164155 1 0 -1
1494 498 2 0.413 -8.929987699239517 -3.3933949164425634 8.931750277832789 0 0 0
819 273 2 0.413 -1.7886069642183102 -13.21677636819785 13.554782806187275 0 1 -1
893 298 2 0.413 -10.951010665276478 -1.1624934281226924 11.762721958040261 1 -1 0
133 45 1 -0.826 -5.740821602052599 -5.004065778704762 7.594122810871715 -1 0 -1
105 35 2 0.413 -0.2160642701297224 -1.4903333685985611 11.51772501056976 0 0 0
1398 466 2 0.413 -9.67539499143897 -1.013142323202194 5.799270033256791 0 0 1
839 280 2 0.413 -0.19943567626997805 -8.53802936837302 3.9549985686590308 1 0 -1
144 48 2 0.413 -10.145944413263715 -8.73243135444606 7.124870452685945 -1 0 0
505 169 1 -0.826 -8.24620683794247 -8.327774541509939 8.239558804470706 0 0 -1
106 36 1 -0.826 -9.273105092477365 -12.297403404799685 3.158475161098286 0 0 0
175 59 1 -0.826 -2.3240994384349403 -9.476484009778241 12.98196336683297 0 0 0
176 59 2 0.413 -1.457162442196477 -10.00552831199548 12.883819059986427 0 0 0
1408 470 1 -0.826 -10.211680540341678 -11.22602453753836 11.780110243315901 1 1 -1
1272 424 2 0.413 -0.03017831374982549 -7.501026410411465 13.134349924449213 0 1 -2
518 173 2 0.413 -6.886794563021519 -11.83900196906864 2.3848364606439443 0 0 0
851 284 2 0.413 -1.2842549468139506 -9.05268289345485 6.466653881468405 0 0 0
53 18 2 0.413 -3.38011206344901 -3.653776210048381 5.238022148009071 0 -1 0
568 190 1 -0.826 -6.420170478296182 -2.0367145755190936 8.12374100045445 -1 0 0
712 238 1 -0.826 -13.209246713249922 -9.08833116527407 0.511080401726657 0 0 0
1492 498 1 -0.826 -9.438180444831488 -3.6725092871735665 9.754228562107071 0 0 0
517 173 1 -0.826 -6.658420237082682 -11.92961745385124 1.3860399730842978 0 0 0
50 17 2 0.413 -8.864785513115628 -0.48786253104047184 8.437824344781552 1 -1 0
817 273 1 -0.826 -1.1540095566858817 -12.508426160133647 13.231162149377274 0 1 -1
885 295 2 0.413 -10.594405837833275 -9.910405800180161 3.7770872704759686 0 1 0
1109 370 2 0.413 -8.39740182765139 -13.048938469451187 0.5850641914371355 0 0 -1
260 87 2 0.413 -11.882183156819533 -5.188691645512051 0.25326341543839526 0 0 0
787 263 1 -0.826 -0.7415956140471565 -11.850835690456494 4.99537016123349 1 0 0
679 227 1 -0.826 -13.619600798446855 -6.546136978440534 11.8450087804675 0 0 0
1453 485 1 -0.826 -5.446960441138396 -8.239857890229043 11.975606835354798 0 0 0
916 306 1 -0.826 -3.9208152719569114 -0.1856853795688238 6.112085808704327 0 0 0
1267 423 1 -0.826 -3.4329369225005344 -9.01152163788263 1.9883097243816916 0 1 0
143 48 2 0.413 -11.547767478870274 -8.28778143804849 7.2424072504136365 -1 0 0
939 313 2 0.413 -3.729202605066865 -7.161981973020466 6.677482897431533 0 0 0
776 259 2 0.413 -12.250425072870872 -5.717357467748826 8.2729154520415 1 1 0
848 283 2 0.413 -7.449310678011435 -9.227427148416833 2.78239916087613 0 0 -1
511 171 1 -0.826 -10.672547045692811 -12.454007347297782 9.157691583051767 0 0 0
569 190 2 0.413 -5.57529508810563 -1.7539258818682057 8.560227360070163 -1 0 0
924 308 2 0.413 -5.46493729815673 -8.600511788370424 8.885997335357645 1 0 0
393 131 2 0.413 -9.55354885388673 -5.050822598483405 7.167309149801371 0 1 0
1067 356 2 0.413 -7.782354127949463 -8.607476003882464 11.803173455985283 0 0 0
1216 406 1 -0.826 -11.999700121357554 -4.397326488730412 6.409301117623185 0 1 -1
976 326 1 -0.826 -13.011983322969218 -12.345525300479345 1.6120325114950873 1 0 0
1454 485 2 0.413 -4.972355622902965 -9.053124839943651 12.223551588537164 0 0 0
570 190 2 0.413 -6.2118323622221805 -2.9426560242117112 7.794755926396233 -1 0 0
1365 455 2 0.413 -8.879098658064985 -13.181413566593212 8.710786650281909 0 1 -1
1445 482 2 0.413 -8.599929046781227 -4.9212602678534925 12.409166282618076 0 0 0
998 333 2 0.413 -11.182909794694769 -6.799208487553084 3.8377716375045967 1 1 0
850 284 1 -0.826 -1.567769105661025 -9.78182259121754 7.016993045686382 0 0 0
1340 447 2 0.413 -8.357120703182627 -6.784010521086984 5.813362051035904 0 1 0
1444 482 1 -0.826 -9.451682430760865 -5.278139518126148 12.689792831226237 0 0 0
797 266 2 0.413 -0.40250336087757255 -4.6607769344599745 1.7869966913923196 1 0 1
1404 468 2 0.413 -12.068455958832914 -1.2921078086337374 8.44780000191748 1 1 -1
103 35 1 -0.826 -0.35462729080801303 -0.6575499584075111 11.988705729362175 0 0 0
1332 444 2 0.413 -5.829012035459729 -6.264460484485071 2.8812503970874364 0 1 0
1378 460 1 -0.826 -1.3698097273848546 -4.665698844529054 7.889652635113995 -1 0 0
1493 498 2 0.413 -9.4339171489352 -2.829096021053074 10.242080583728937 0 0 0
82 28 1 -0.826 -1.8927829057901846 -7.267649026326322 4.01879307802289 0 0 0
1446 482 2 0.413 -10.098274322693626 -4.920190586696947 12.087046169186534 0 0 0
1268 423 2 0.413 -4.170553106454905 -8.391639850605056 1.9385576568296496 0 1 0
978 326 2 0.413 -12.466371093233015 -12.218405678886079 2.432359125438209 1 0 0
351 117 2 0.413 -4.226274681852974 -11.4231561216451 11.583677906617618 1 0 0
200 67 2 0.413 -4.607392898541599 -4.194699524287007 9.514468342648088 0 0 0
923 308 2 0.413 -3.9465992614969725 -8.646245013797039 8.888797383636708 1 0 0
1190 397 2 0.413 -13.336925692579076 -3.3577350409337576 11.472700546784518 1 1 -1
108 36 2 0.413 -8.416682089113706 -11.777737910275125 3.2859299825306163 0 0 0
852 284 2 0.413 -1.0915148807997745 -10.457826107334391 6.505714592032943 0 0 0
1168 390 1 -0.826 -0.09563890029441424 -3.6389168064991413 5.2061324902586374 0 1 0
1028 343 2 0.413 -7.9660984033995135 -2.3771632898767976 13.423015583918323 1 -1 -1
1076 359 2 0.413 -8.973343931429373 -4.262994614853561 3.081859336680539 1 -1 0
1379 460 2 0.413 -1.635437973595634 -3.737232144512552 7.971086362268233 -1 0 0
997 333 1 -0.826 -11.822997650904707 -6.181558485636972 3.4646590660674814 1 1 0
1380 460 2 0.413 -2.101329022288235 -5.081088900067975 7.537808769654719 -1 0 0
738 246 2 0.413 -10.669098795322183 -8.578780420601765 2.165220775258664 0 0 1
49 17 1 -0.826 -9.045684678242228 -0.8250643181326893 7.549100342874615 1 -1 0
209 70 2 0.413 -4.159403390299612 -1.8496514651185834 10.203641266076298 1 -1 0
701 234 2 0.413 -1.047271586977116 -6.5940389636196315 9.003957453013511 0 1 0
1110 370 2 0.413 -9.72791946849366 -12.619596924996898 1.0138612250824632 0 0 -1
512 171 2 0.413 -10.94544138317562 -11.671106218534705 9.617177255294662 0 0 0
259 87 1 -0.826 -11.59951517567525 -6.110736353588984 0.20207849061605643 0 0 0
1413 471 2 0.413 -1.2239405735243398 -5.227516279272523 11.630071135820097 0 1 0
350 117 2 0.413 -3.0865492750996815 -10.97400105001437 10.830567891109967 1 0 0
481 161 1 -0.826 -8.52257279783026 -5.425707891552049 1.546473378651715 0 0 0
52 18 1 -0.826 -3.3610904708820346 -3.154936257409018 6.059035663114942 0 -1 0
884 295 2 0.413 -11.343686446063675 -9.307081271270855 5.025376966489892 0 1 0
844 282 1 -0.826 -6.942850269694203 -4.135263355435512 12.23103609493124 1 0 -1
937 313 1 -0.826 -3.1436811928909076 -6.404840087358455 6.390830888801878 0 0 0
1075 359 1 -0.826 -9.71617976323776 -3.8426159244503584 3.6463136676286485 1 -1 0
1410 470 2 0.413 -10.693747792943082 -10.813330591492887 12.588190530866418 1 1 -1
702 234 2 0.413 -1.4708057715932146 -8.006717567165602 9.145711176833812 0 1 0
276 92 2 0.413 -10.485855171863179 -12.706413905784634 13.408637864344419 0 -1 0
1206 402 2 0.413 -10.61244122792717 -12.750565672612282 6.963766202339821 0 1 -1
1341 447 2 0.413 -8.178197452191142 -8.08686208371872 6.421283795943834 0 1 0
542 181 2 0.413 -13.2147899713198 -9.767978833877978 6.071780800879827 1 1 -1
84 28 2 0.413 -1.577337928386985 -6.4777895272397545 3.4699979515289865 0 0 0
135 45 2 0.413 -5.487231504203299 -5.817747120246922 8.043455767519626 -1 0 -1
268 90 1 -0.826 -6.624549577405303 -0.778300056603042 3.8823035888526665 0 0 0
737 246 2 0.413 -10.424401855565161 -7.611843498846139 0.9795489506650856 0 0 1
392 131 2 0.413 -8.883509704942416 -4.474739665235539 6.013342869824767 0 1 0
513 171 2 0.413 -11.368872102999235 -13.047491931062911 9.365649771750386 0 0 0
556 186 1 -0.826 -6.419770692032451 -3.9814371024521638 3.6716750952022696 0 0 0
736 246 1 -0.826 -10.069935586240003 -8.368811447094174 1.4527205413478015 0 0 1
775 259 1 -0.826 -12.337086618660875 -6.6926376805987795 8.298938711594124 1 1 0
1396 466 1 -0.826 -9.60951293759993 -1.1027236898456998 4.78077209554665 0 0 1
199 67 1 -0.826 -4.218251151965031 -3.5853223356676125 10.201846356808572 0 0 0
1485 495 2 0.413 -4.638851261953597 -13.339704045650413 12.750606874196079 0 0 0
201 67 2 0.413 -3.4571129912723073 -4.12934599007181 10.548217287835973 0 0 0
796 266 1 -0.826 -0.7893167746763226 -4.985381564753601 2.592769145722352 1 0 1
1027 343 1 -0.826 -8.398240967630738 -1.5110744959052642 13.431161695414252 1 -1 -1
1409 470 2 0.413 -9.661934137902405 -10.44920765922426 11.502569445218812 1 1 -1
849 283 2 0.413 -7.4221253542801495 -9.135925278008347 4.2147583380597045 0 0 -1
251 84 2 0.413 -4.800048369003932 -0.1503378049065791 2.537256723107271 -1 0 1
977 326 2 0.413 -12.640358501274415 -11.597389438935974 1.0952571494859935 1 0 0
922 308 1 -0.826 -4.6469021401421 -8.002082408128897 8.947400766002088 1 0 0
557 186 2 0.413 -5.984921204669026 -3.3119418000908354 4.223804601685925 0 0 0
999 333 2 0.413 -12.517800282362316 -6.904461817561746 3.449608171196937 1 1 0
83 28 2 0.413 -2.1189426150626236 -7.856215676285291 3.2357163623322247 0 0 0
558 186 2 0.413 -6.437434460033504 -3.582979808230956 2.796248445807832 0 0 0
938 313 2 0.413 -2.730119282878123 -6.7789448293343755 5.556755531326273 0 0 0
210 70 2 0.413 -3.4114778641191954 -0.9987865163598784 9.432010617768631 1 -1 0
1169 390 2 0.413 -0.45643150989302406 -4.070010020721089 5.9599944081054215 0 1 0
269 90 2 0.413 -7.557289838004453 -1.0787480406318348 3.9444563274960682 0 0 0
483 161 2 0.413 -8.553348324901844 -6.410597383965536 1.4108822237889846 0 0 0
1077 359 2 0.413 -10.264186136402964 -3.6703629684926398 2.864745096614614 1 -1 0
254 85 2 0.413 -8.273544280699618 -9.162332447164427 0.7333183250523092 0 0 0
846 282 2 0.413 -6.354803205551655 -3.9149039544803426 13.004185132836954 1 0 -1
818 273 2 0.413 -0.5486027355181076 -13.021416769748743 12.712322389051847 0 1 -1
1108 370 1 -0.826 -9.340630641090998 -13.330389287459669 0.49610764469428403 0 0 -1
840 280 2 0.413 -0.05988280478239005 -9.996549549085367 4.020895128694557 1 0 -1