LAMMPS data file via write_data, version 2 Aug 2023, timestep = 30000, units = real

1650 atoms
5 atom types
792 bonds
1 bond types
396 angles
1 angle types

-12.120000000000001 12.120000000000001 xlo xhi
-12.120000000000001 12.120000000000001 ylo yhi
-28.28 28.28 zlo zhi

Masses

1 15.9994
2 1.008
3 28.99
4 35.453
5 26.9815

Pair Coeffs # lj/cut/tip4p/long

1 0.185199 3.1589
2 0 0
3 0.0469 2.4299
4 0.15 4.0447
5 11.697 2.574

Bond Coeffs # harmonic

1 0 0.9572

Angle Coeffs # harmonic

1 0 104.52

Atoms # full

16 0 5 0 -7.803424160454515 -11.82003614981018 -16.034497917961684 0 0 0
27 0 5 0 -9.937316749104184 -9.937514313056138 -16.15516149340893 0 0 0
29 0 5 0 -5.838763020682021 -9.75727209634232 -15.951239644388881 0 0 0
28 0 5 0 -7.870639487227244 -7.798592838450018 -16.08550336448732 0 0 0
39 0 5 0 -9.948683406495773 -5.817719914353919 -16.06938358655389 0 0 0
41 0 5 0 -5.847033945835415 -5.823830480242666 -16.032450036303523 0 0 0
14 0 5 0 -11.890804958254247 -11.901560673257766 -15.994528196519585 0 0 0
26 0 5 0 -11.964134078816505 -7.783919483506579 -16.100842470153594 0 0 0
18 0 5 0 -3.860409022327157 -11.909425181886167 -16.02766852429526 0 0 0
30 0 5 0 -3.822734891425792 -7.7408934753909575 -15.993078754190963 0 0 0
20 0 5 0 0.16632155613947205 -11.777205052282408 -16.051050536493573 0 0 0
31 0 5 0 -1.8563739694449108 -9.794087910279103 -16.115711170736944 0 0 0
33 0 5 0 2.179711317836519 -9.813885619827134 -16.07125856899771 0 0 0
32 0 5 0 0.19368303491288855 -7.720333683942096 -16.00329709332066 0 0 0
43 0 5 0 -1.7993516030476608 -5.775850939982019 -15.918898891647082 0 0 0
45 0 5 0 2.3116920571480595 -5.748494096051168 -15.970217850364556 0 0 0
34 0 5 0 4.254472615523047 -7.879650967605812 -16.003094244333205 0 0 0
22 0 5 0 4.190665619062556 -11.80216068350216 -16.01336659049314 0 0 0
25 0 5 0 10.336953842524373 -9.81901783732335 -16.069311717543147 -1 0 0
24 0 5 0 8.334461801323517 -11.827712556725952 -16.086480661979778 0 0 0
35 0 5 0 6.279582410160095 -9.929473119569987 -15.990160151421536 0 0 0
36 0 5 0 8.330636577903064 -7.78671601372881 -16.026206380701264 0 0 0
47 0 5 0 6.291238451998931 -5.867979307357103 -16.039520552385 0 0 0
37 0 5 0 10.344638164768677 -5.8140104120653024 -16.117552291911146 -1 0 0
40 0 5 0 -7.799612029190836 -3.644580417091845 -16.07018938784168 0 0 0
51 0 5 0 -9.845357319779783 -1.6994573892503646 -16.07717564281333 0 0 0
53 0 5 0 -5.762812997178002 -1.740354634575816 -16.002763692911113 0 0 0
52 0 5 0 -7.783849108662646 0.322694457795942 -16.109806774057994 0 0 0
63 0 5 0 -9.8919677573243 2.3142063004483866 -16.106566068389625 0 0 0
65 0 5 0 -5.802059155434559 2.344607708827404 -15.896918292538587 0 0 0
50 0 5 0 -11.96843833564424 0.3453730078526677 -15.984502330238147 0 0 0
38 0 5 0 -11.870046728634556 -3.6916945039272235 -16.05702827728944 0 0 0
42 0 5 0 -3.782481035588801 -3.8121887324629498 -15.981362111391709 0 0 0
54 0 5 0 -3.766809505093606 0.21402897233501245 -15.949060697093342 0 0 0
44 0 5 0 0.20896831217889814 -3.7796991649444758 -15.96435751678874 0 0 0
55 0 5 0 -1.7993619652490938 -1.7890946612815415 -15.996118361852304 0 0 0
57 0 5 0 2.321882754925969 -1.8481576800176103 -15.99851364981068 0 0 0
56 0 5 0 0.21105164220595143 0.2585991018290466 -16.145714112048005 0 0 0
67 0 5 0 -1.7856588166460718 2.2526458360562747 -15.996489920307114 0 0 0
69 0 5 0 2.2397509138641754 2.2921075901948633 -16.06453729051436 0 0 0
58 0 5 0 4.32540084358646 0.30568385415974847 -16.081672176541563 0 0 0
46 0 5 0 4.373177664059295 -3.790070028214423 -16.054277703271772 0 0 0
71 0 5 0 6.282702590170731 2.3385674323531056 -16.01113906294839 0 0 0
61 0 5 0 10.311448778613174 2.4011569689632553 -16.042917719517668 -1 0 0
49 0 5 0 10.265399572806144 -1.6900417315951777 -15.9730104129873 -1 0 0
60 0 5 0 8.353041538037173 0.32718285318348317 -15.977295369063665 0 0 0
59 0 5 0 6.350812558988384 -1.6494429900562986 -16.056604082920778 0 0 0
48 0 5 0 8.331289272381845 -3.752802470203693 -16.101405574195486 0 0 0
15 0 5 0 -9.816967280535778 10.3825021631196 -16.038990598146125 0 -1 0
17 0 5 0 -5.791541286300429 10.357276103854426 -15.976587510089525 0 -1 0
5 0 5 0 -5.74900201625168 6.3965225247444355 -16.004156386426054 0 -1 0
64 0 5 0 -7.767944982930014 4.323147971648748 -15.915806880477602 0 0 0
4 0 5 0 -7.774568106957371 8.352283253014635 -15.97093622130449 0 -1 0
3 0 5 0 -9.86965223683427 6.378052316794843 -16.022702248783368 0 -1 0
2 0 5 0 -11.941205654530433 8.333398171282484 -16.044558573480483 0 -1 0
62 0 5 0 -11.879812548368022 4.3181648123376 -16.049362029738848 0 0 0
6 0 5 0 -3.8194237077726965 8.398800384785645 -16.018341047352592 0 -1 0
66 0 5 0 -3.8074081294087403 4.388592610929277 -16.007800614407667 0 0 0
9 0 5 0 2.2553391577087893 6.29340474211593 -16.02887786986616 0 -1 0
19 0 5 0 -1.7540623056663278 10.371873001367298 -16.026552282383438 0 -1 0
21 0 5 0 2.274972261736364 10.396063985306933 -16.08932150945976 0 -1 0
7 0 5 0 -1.7158490882476973 6.377532253918472 -15.942257270934768 0 -1 0
8 0 5 0 0.3102677000890596 8.370374190125519 -16.1370476900355 0 -1 0
68 0 5 0 0.24164222081673642 4.294357868379472 -15.985868299889708 0 0 0
10 0 5 0 4.263626888583402 8.431035454145446 -16.045618571444233 0 -1 0
70 0 5 0 4.240096681032125 4.292741332437664 -16.045864564711138 0 0 0
72 0 5 0 8.355614623692869 4.40188781079705 -16.057144094389685 0 0 0
23 0 5 0 6.274342955340819 10.432681020445113 -16.114359561575213 0 -1 0
12 0 5 0 8.29708762933022 8.372617892726094 -16.046045937982154 0 -1 0
13 0 5 0 10.285976107035063 10.365507250220178 -16.095601020880856 -1 -1 0
1 0 5 0 10.385872151493363 6.38267534980471 -16.01639428350426 -1 -1 0
11 0 5 0 6.226618995580342 6.4343090675006716 -15.96248749087479 0 -1 0
160 0 5 0 -7.820232628684956 -11.819170053826502 -12.025040568110516 0 0 0
473 14 2 0.5564 -9.042963037483592 -11.231847862639396 -9.086659209803605 0 0 0
171 0 5 0 -9.956880603845056 -9.801858318680301 -11.998601250645375 0 0 0
814 128 1 -1.1128 -6.104931826278799 -7.975375341837221 -8.897368336979287 0 1 0
815 128 2 0.5564 -5.231892091162561 -7.64624717084433 -9.111166153516065 0 1 0
816 128 2 0.5564 -5.96035018418191 -8.588911758468159 -8.177019475810855 0 1 0
173 0 5 0 -5.834146821663608 -9.773576977398633 -11.99557566562533 0 0 0
172 0 5 0 -7.941173512200723 -7.7684187286726925 -11.935051053637865 0 0 0
947 172 2 0.5564 -6.585153490349621 -11.002266993033087 -9.548319370147576 0 0 0
111 0 5 0 -7.865175724896131 -5.755217828305534 -14.031594176530902 0 0 0
1609 393 1 -1.1128 -10.202067379901985 -7.408632694345071 -9.171727405737986 0 0 0
183 0 5 0 -9.865283023538417 -5.7329741512788255 -12.0948340568715 0 0 0
185 0 5 0 -5.865916404687128 -5.7054213758412065 -11.933614731908932 0 0 0
88 0 5 0 -9.891305996856152 -11.828528274962599 -14.039185551362893 0 0 0
665 78 2 0.5564 -6.4069625094347025 -6.227494721641769 -8.601812302863879 0 0 0
664 78 1 -1.1128 -6.568977959829093 -5.286093111491373 -8.663029508905076 0 0 0
90 0 5 0 -5.814088209043895 -11.78803984236546 -13.989195467989198 0 0 0
100 0 5 0 -9.85586213145121 -7.7876607791590935 -14.08037401979443 0 0 0
2138 569 2 0.5564 -6.995652611700775 -9.391130187554833 -5.4580389797872595 0 0 0
1022 197 2 0.5564 -7.363243278823662 -8.939585826205056 -9.450318339164555 0 0 0
99 0 5 0 -7.866431710783366 -9.803411248426151 -13.993635133290866 0 0 0
2139 569 2 0.5564 -7.802968963645094 -8.146635073901503 -5.155768485103655 0 0 0
102 0 5 0 -5.868845517476648 -7.75908235843668 -14.019115632232163 0 0 0
2137 569 1 -1.1128 -7.77635302990433 -9.089600937426116 -4.993475921658488 0 0 0
594 54 2 0.5564 -7.838585544470468 -9.519125235682607 -3.1850948318984447 0 0 0
996 188 2 0.5564 -6.743598711016508 -5.618247760022937 -5.4519419649897 0 0 0
1610 393 2 0.5564 -9.94858187746092 -6.4896331447380025 -9.085601185997774 0 0 0
1611 393 2 0.5564 -11.144499099959015 -7.38313221981151 -9.33726964065048 0 0 0
592 54 1 -1.1128 -7.979235785142044 -9.484084222487908 -2.2389323672738173 0 0 0
170 0 5 0 -11.938747021190519 -7.812210914046854 -11.94727265504136 0 0 0
97 0 5 0 -11.944848100157632 -9.827869179699052 -14.058386415348231 0 0 0
109 0 5 0 -11.921639981883352 -5.7624827369559695 -14.046360313885595 0 0 0
158 0 5 0 -11.982845518356484 -11.868730433153162 -12.028952013085908 0 0 0
1085 218 2 0.5564 -9.743387088467921 -5.710373183221304 -7.303669401396161 0 0 0
1084 218 1 -1.1128 -9.988340987340399 -6.130496791996785 -6.479213814926605 0 0 0
1086 218 2 0.5564 -10.264173891335643 -7.0116705205986865 -6.731565467852191 0 0 0
1021 197 1 -1.1128 -8.138330279236513 -9.500927441121464 -9.431144595506 0 0 0
1023 197 2 0.5564 -8.864306993401833 -8.90180279628242 -9.257249999163935 0 0 0
1190 253 2 0.5564 -8.232679244554204 -5.820512326170901 -3.6719137228708285 0 0 0
946 172 1 -1.1128 -6.054021017481993 -11.742682030654114 -9.255205335123945 0 0 0
1037 202 2 0.5564 -10.309862480233818 -8.945628210639104 -1.4772040471717112 0 0 0
995 188 2 0.5564 -8.03785782029615 -6.139033924053789 -6.039795077464914 0 0 0
994 188 1 -1.1128 -7.370299429397605 -6.338515862181193 -5.383437682757576 0 0 0
607 59 1 -1.1128 -5.904582728190319 -10.044917954175315 -6.802444829129666 0 0 0
472 14 1 -1.1128 -9.685866488205976 -11.921590488464247 -8.92184981727604 0 0 0
1686 418 2 0.5564 1.1639710942470525 6.21679862987062 -0.628395012604022 0 0 0
567 45 2 0.5564 7.945031319883866 6.9217843933024685 -1.3224414460215757 0 -1 0
1189 253 1 -1.1128 -8.91879366855544 -5.322806343965814 -3.22720162487397 0 0 0
893 154 2 0.5564 -6.853175675658567 10.669007577193112 -7.2234814281926925 0 -1 0
1191 253 2 0.5564 -8.994440270788829 -5.734645938456756 -2.366447176312198 0 0 0
1140 236 2 0.5564 -5.001882354823933 -5.070981888471176 -5.1027844221550165 0 0 0
608 59 2 0.5564 -6.037749381657558 -10.984632656287657 -6.926685865449652 0 0 0
1542 370 2 0.5564 -7.812248625921928 11.886619188762804 -3.48246633762343 0 0 0
1541 370 2 0.5564 -9.230878458684943 -11.899471044958025 -3.753301120720134 0 1 0
588 52 2 0.5564 -12.09404353196514 -9.42329065482407 -7.469971358154894 0 0 0
666 78 2 0.5564 -7.423502984516599 -5.216825230976871 -9.088730213146825 0 0 0
2392 0 4 -1 -9.674364469059201 -4.287027612735516 -8.97094578698183 0 0 0
1138 236 1 -1.1128 -5.612020274944885 -4.500254401105607 -4.635629507800091 0 0 0
1139 236 2 0.5564 -5.828280642692725 -4.982289600916059 -3.837440672353002 0 0 0
1540 370 1 -1.1128 -8.567784602524636 11.714606089855193 -4.044435374621482 0 0 0
1922 497 2 0.5564 -5.445023915124332 -5.925710759116709 -1.6686768202359774 0 0 0
593 54 2 0.5564 -7.9034749158234 -10.393863000808645 -1.9511888922058052 0 0 0
1466 345 2 0.5564 -4.1703834438841145 -12.03836824314175 -9.155334907681222 0 0 0
1057 209 1 -1.1128 -3.8825853044241336 -6.929368185992262 -2.0220661577948973 0 0 0
1955 508 2 0.5564 6.143956007390387 3.9474200782158535 -0.36638565815894114 -1 0 0
1162 244 1 -1.1128 -4.741415831603849 0.04147548221708354 -0.6350007700781513 -1 0 0
1011 193 2 0.5564 -12.05450427326497 -9.904918027702395 -9.568500689008095 0 0 0
1044 204 2 0.5564 -11.849255864733756 -5.301344584065585 -9.672566419221223 0 0 0
1921 497 1 -1.1128 -6.170767243431097 -5.49553042672138 -2.120864570301491 0 0 0
708 92 2 0.5564 -5.4385250494580895 -3.8383507739726963 -8.805528314778035 0 0 0
1923 497 2 0.5564 -6.560607500262372 -4.9239228952400484 -1.4594094507100672 0 0 0
879 149 2 0.5564 -10.190143667502142 11.599578367300008 -7.189307370878264 0 -1 0
877 149 1 -1.1128 -10.422013622555989 11.471813638650358 -6.269445955910553 0 -1 0
1683 417 2 0.5564 -10.835765581320045 -9.950685754429529 -4.1396224743986485 0 1 0
878 149 2 0.5564 -10.170031102136758 -11.949387679690279 -5.842472763231583 0 0 0
1681 417 1 -1.1128 -10.390832625231221 -10.422070981144524 -4.843939883601663 0 1 0
1682 417 2 0.5564 -9.530031476316678 -10.00771315373492 -4.903626704733461 0 1 0
1730 433 2 0.5564 -10.740711192209003 -11.264017914321482 -1.2610179975389686 0 0 0
1963 511 1 -1.1128 -3.377024765714154 -6.14210408756897 -5.808784633267843 0 0 0
1965 511 2 0.5564 -2.8228127986626834 -5.371710559433955 -5.683985607805729 0 0 0
609 59 2 0.5564 -4.975656284201171 -9.96052370281721 -6.5874883402273445 0 0 0
1964 511 2 0.5564 -3.0849212692158194 -6.759113401790103 -5.137810034327099 0 0 0
629 66 2 0.5564 -3.251782868231699 -8.900308905356768 -4.8787279278495586 0 0 0
628 66 1 -1.1128 -3.02435043090438 -8.288790507191107 -4.178333997393246 0 0 0
667 79 1 -1.1128 -3.5403871380586547 -6.668909999156553 -8.90101370765588 0 0 0
668 79 2 0.5564 -3.2793330824923785 -5.800406315160421 -9.207257309518887 0 0 0
630 66 2 0.5564 -2.1672815566886916 -8.58400698079623 -3.870905854101497 0 0 0
669 79 2 0.5564 -3.447308723437023 -6.625806694467976 -7.949324918718634 0 0 0
1058 209 2 0.5564 -3.3151513401698587 -6.158506675050102 -2.017218402457922 0 0 0
1059 209 2 0.5564 -3.550248863467515 -7.467482183212852 -2.7405501422192504 0 0 0
162 0 5 0 -3.8073954362649447 -11.888918563016265 -12.01907364797592 0 0 0
101 0 5 0 -3.792951658527358 -9.789973377668614 -13.971838672032376 0 0 0
113 0 5 0 -3.8883805477032998 -5.721399605217519 -13.941738468991193 0 0 0
174 0 5 0 -3.8029027842499494 -7.811247169981069 -12.028877528065069 0 0 0
164 0 5 0 0.1459361770429268 -11.833634134144452 -11.987805513288492 0 0 0
175 0 5 0 -1.8184446698007808 -9.801990488494628 -12.043309173751268 0 0 0
1465 345 1 -1.1128 -3.227101705483925 -11.924886252864619 -9.03882522637445 0 0 0
1119 229 2 0.5564 0.13964474386369716 -9.92226302348293 -3.215157048924391 0 0 0
1117 229 1 -1.1128 -0.48469730637059205 -9.230249386712954 -2.9971065907995205 0 0 0
177 0 5 0 2.3115481475112034 -9.843263929766769 -11.988423933632845 0 0 0
640 70 1 -1.1128 -1.6726904826855282 -9.531170138985038 -8.709977263637048 0 0 0
1467 345 2 0.5564 -3.0890121433243958 -10.980046363623167 -9.105466450557095 0 0 0
642 70 2 0.5564 -1.0617092439681792 -10.25249028121562 -8.55953936165349 0 0 0
176 0 5 0 0.2679438142855192 -7.8414763448253275 -11.95891800891487 0 0 0
508 26 1 -1.1128 -0.6976610066646601 -7.102996788897107 -9.408653340566586 -1 0 0
641 70 2 0.5564 -1.1137855584759764 -8.783355506710857 -8.921239433720993 0 0 0
510 26 2 0.5564 -0.4030734227959602 -6.207500063589861 -9.242711180219043 -1 0 0
1118 229 2 0.5564 -0.12588753989953444 -8.444578069524457 -3.4096693540362732 0 0 0
590 53 2 0.5564 0.46244118232487175 -11.208246136578936 -7.12684946083494 -1 0 0
187 0 5 0 -1.8249308930290813 -5.772959925109602 -11.969050724593906 0 0 0
589 53 1 -1.1128 0.9793837380114964 -10.748994006646997 -7.788733405784465 -1 0 0
591 53 2 0.5564 1.1495131295475158 -9.888389407772625 -7.405787100787906 -1 0 0
189 0 5 0 2.249955081629008 -5.810478832530795 -12.04005832545467 0 0 0
106 0 5 0 2.2531863865168487 -7.8044705474368135 -14.012015725404575 0 0 0
94 0 5 0 2.2447724838641463 -11.849650418365588 -14.08385118980608 0 0 0
448 6 1 -1.1128 -3.0476042469013627 -10.045695560843706 -6.325842023415414 0 0 0
449 6 2 0.5564 -2.2933343595631404 -10.590766657863888 -6.101774398054131 0 0 0
450 6 2 0.5564 -2.772148743545833 -9.563598833121462 -7.105546424781336 0 0 0
1211 260 2 0.5564 3.080794832787144 -9.148904874614928 -5.246847176710923 0 0 0
1210 260 1 -1.1128 3.451003016558662 -8.644458687410562 -5.971218777661157 0 0 0
1212 260 2 0.5564 2.7686912904096137 -8.652280299136589 -6.6425026260686195 0 0 0
701 90 2 0.5564 2.279046237512892 -7.652509896725513 -8.620124009864334 0 0 0
700 90 1 -1.1128 1.548522342889316 -7.89612795023799 -8.051601747713088 0 0 0
702 90 2 0.5564 0.8099254905396321 -7.380732152036842 -8.375754124836833 0 0 0
997 189 1 -1.1128 3.249415008596826 -11.6452379530473 -2.08117784785669 0 0 0
92 0 5 0 -1.7852255447521777 -11.895788359381964 -13.966767288900044 0 0 0
509 26 2 0.5564 -1.639388736278402 -7.081230041174768 -9.238628989623807 -1 0 0
115 0 5 0 0.18135764373422128 -5.767248578534476 -13.96620040345991 0 0 0
103 0 5 0 0.15675699064556575 -9.821775034954763 -14.068990254574867 0 0 0
104 0 5 0 -1.8153914568375553 -7.799206556361682 -13.995293520236991 0 0 0
1455 341 2 0.5564 -0.4019724659984625 -5.982143281980035 -4.187305221340241 0 0 0
998 189 2 0.5564 2.7213016064221316 12.090581072640477 -1.462201780892805 0 -1 0
872 147 2 0.5564 2.096217630710535 -8.926464388360527 -3.1131824563167747 -1 0 0
871 147 1 -1.1128 2.332354453096303 -9.691623649388118 -3.6375893185803747 -1 0 0
582 50 2 0.5564 -2.625291567093119 11.26101223819033 -7.701382854261575 0 -1 0
1454 341 2 0.5564 0.9362436550426078 -6.500493033692377 -4.669370270279897 0 0 0
1453 341 1 -1.1128 0.1549879773536652 -6.760597428140108 -4.181294800826566 0 0 0
2182 584 1 -1.1128 -0.7935653616537671 -11.691526259557978 -5.596801280522275 0 0 0
973 181 1 -1.1128 -2.0529558685769356 -8.768299113679412 -0.349196393897231 0 0 0
1646 405 2 0.5564 3.15391566627553 -6.376854919194834 -4.26306726910253 0 0 0
974 181 2 0.5564 -1.446999242110761 -8.919275398969152 -1.0746305052234038 0 0 0
2183 584 2 0.5564 -1.2536635882249967 11.810623611556505 -5.996949642226318 0 -1 0
873 147 2 0.5564 2.698603442420924 -10.311263287013984 -3.0066057273860296 -1 0 0
1700 423 2 0.5564 -2.3450952443824726 -4.675958625879655 -1.2540692333211754 0 0 0
1699 423 1 -1.1128 -2.5373943276625224 -4.294606889987466 -2.110704451018285 0 0 0
1645 405 1 -1.1128 2.766106163710736 -6.262885437497841 -5.130734606055203 0 0 0
1019 196 2 0.5564 3.382795834024054 -5.555868063104848 -9.803991516704194 -1 0 0
1647 405 2 0.5564 2.8124474073125802 -7.131471295120611 -5.530288168447844 0 0 0
999 189 2 0.5564 4.11300735814723 -11.591646748009454 -1.6718257438390505 0 0 0
716 95 2 0.5564 3.723567919325712 -10.314279487677911 -9.436033260641809 0 0 0
1948 506 1 -1.1128 2.3213091052913737 -4.721696115896952 -2.031559251491114 -1 0 0
1950 506 2 0.5564 2.1542370391677887 -5.653932060287065 -1.8927967947822952 -1 0 0
1949 506 2 0.5564 1.5246251130395874 -4.3947003593308 -2.449411287336264 -1 0 0
1520 363 2 0.5564 1.2128027946344289 -4.253900798392271 -9.024643824237794 -1 0 0
2400 0 4 -1 -2.1328369131260283 -3.692752886146771 -8.759950941257342 0 0 0
1062 210 2 0.5564 1.438820125901073 -4.2849295186587595 -5.646067263246145 0 0 0
1061 210 2 0.5564 0.7556139037405023 -4.162991368366864 -6.991524661107639 0 0 0
2009 526 2 0.5564 -0.8746456579339468 -3.84207971355084 -2.418398100694786 0 0 0
1396 322 1 -1.1128 1.6997323301016773 -7.260014105137086 -1.8005717950738158 -1 0 0
1010 193 2 0.5564 -11.387006313643207 -11.144011803688993 -9.010836518710915 0 0 0
524 31 2 0.5564 5.786608486376594 -7.607683236841765 -4.178548915265962 0 0 0
1018 196 1 -1.1128 3.864742658667467 -6.161818557949143 -9.241156591306826 -1 0 0
1296 288 2 0.5564 1.0315827486278464 1.335313137811671 -0.07591691886306724 0 0 0
774 114 2 0.5564 11.480400022678625 11.371578903539074 -4.584686993875948 0 -1 0
926 165 2 0.5564 5.062603738600257 -10.33613453838583 -6.990674864684532 0 0 0
595 55 1 -1.1128 10.822589488813483 -6.4377424569036545 -6.362313770144638 -1 0 0
1009 193 1 -1.1128 12.063778689963533 -10.608316704328214 -8.930811671545339 -1 0 0
773 114 2 0.5564 10.274686425722464 -12.025708646734453 -4.226936000123299 0 0 0
552 40 2 0.5564 9.873726401410092 -10.212516679236602 -5.823366369687395 0 0 0
1272 280 2 0.5564 10.387870905197138 -8.351347072290437 -2.269706037756881 0 1 0
596 55 2 0.5564 11.260484895672578 -7.287571665163442 -6.40997786830397 -1 0 0
597 55 2 0.5564 9.975004784452134 -6.580547556598498 -6.783548796821098 -1 0 0
1043 204 2 0.5564 11.757727519013088 -6.047775149651289 -8.51756564104906 -1 0 0
1038 202 2 0.5564 -11.668202899890165 -9.064887377458529 -2.134916277249902 0 0 0
551 40 2 0.5564 10.097512093767257 -9.634208314267168 -4.4422881989177 0 0 0
550 40 1 -1.1128 9.470369060676036 -10.14085597803639 -4.958265000828786 0 0 0
1206 258 2 0.5564 5.594742855016974 -6.397630545916421 -2.0860895714652057 0 0 0
753 107 2 0.5564 5.971919084284428 -11.085914391293281 -3.3426144033805123 0 0 0
752 107 2 0.5564 7.290432359469032 -10.383346009543581 -3.5871868349069684 0 0 0
751 107 1 -1.1128 6.510725726001224 -10.707961002031228 -4.037647478735181 0 0 0
927 165 2 0.5564 6.274042345928559 -10.47648666211894 -6.0936722689971425 0 0 0
1005 191 2 0.5564 8.828973792475994 -4.614075967019814 -2.1581544184928663 0 0 0
1020 196 2 0.5564 4.681889274079521 -5.705206174226112 -9.041135300032886 -1 0 0
1271 280 2 0.5564 11.254998954323206 -7.546411806873922 -3.2141982817498604 0 1 0
166 0 5 0 4.2693467249702275 -11.851635396606516 -12.027638495546698 0 0 0
105 0 5 0 4.228654445846689 -9.854402388392526 -14.03759805161808 0 0 0
178 0 5 0 4.231285877155019 -7.785981363456641 -12.01500162361088 0 0 0
117 0 5 0 4.280225733473361 -5.838078774109517 -13.997480993682423 0 0 0
523 31 1 -1.1128 5.8572357925043645 -7.202167225296973 -5.042725356087861 0 0 0
525 31 2 0.5564 5.167882334392377 -7.618393717737578 -5.560199658030995 0 0 0
785 118 2 0.5564 7.750791889939614 -9.122818916567551 -9.654143440302422 0 0 0
107 0 5 0 8.34637649751062 -9.848732443920822 -14.003366417578128 0 0 0
86 0 5 0 10.24642745912157 -11.772022697868291 -14.076987641530193 -1 0 0
784 118 1 -1.1128 7.6867372384882104 -9.941328306745932 -9.162034384337053 0 0 0
466 12 1 -1.1128 8.94162479028208 -11.704587318104787 -1.9680945458593706 0 0 0
169 0 5 0 10.354316535594144 -9.811542437069074 -12.016770396162483 -1 0 0
168 0 5 0 8.234644412325482 -11.885254795485412 -11.936270616028146 0 0 0
925 165 1 -1.1128 5.985518985917053 -10.589877686190123 -6.9992825596597985 0 0 0
179 0 5 0 6.228622327545337 -9.830405891838979 -12.080907527866502 0 0 0
180 0 5 0 8.287897249275426 -7.8395444745190614 -12.056748332030896 0 0 0
636 68 2 0.5564 9.097165645450335 -10.903098122810775 -7.967675204843062 0 0 0
715 95 1 -1.1128 3.3963719001835724 -11.10722815229332 -9.011289783949103 0 0 0
717 95 2 0.5564 2.6317357172915745 -10.815493072824669 -8.51484715218258 0 0 0
634 68 1 -1.1128 9.822524492536493 -11.137465016101533 -7.3887458671367705 0 0 0
635 68 2 0.5564 10.606322037253767 -10.853062536059555 -7.858862848571758 0 0 0
191 0 5 0 6.40775224294682 -5.828266200717749 -12.074441306493835 0 0 0
786 118 2 0.5564 7.055578565867485 -9.754723628157283 -8.467016340444689 0 0 0
468 12 2 0.5564 8.47486858196596 11.727503473225585 -2.1817608142077214 0 -1 0
467 12 2 0.5564 9.681541868883524 -11.687195818573457 -2.5750972587998513 0 0 0
181 0 5 0 10.277692488038847 -5.7438609525009605 -12.039117365821575 -1 0 0
96 0 5 0 6.24694552623574 -11.876075580220808 -14.003080851451427 0 0 0
1146 238 2 0.5564 8.00906511131344 -5.880243230144758 -7.434654638550909 0 0 0
131 0 5 0 8.282108868556191 -1.7677990417570706 -13.97054868501627 0 0 0
98 0 5 0 10.369662974265976 -7.766879825183163 -14.001608519999246 -1 0 0
108 0 5 0 6.281660484523405 -7.848966700358725 -14.031121358605288 0 0 0
1145 238 2 0.5564 8.039992077670249 -6.406139522714465 -6.0153687846974675 0 0 0
1144 238 1 -1.1128 8.239471672964688 -5.630608370772643 -6.5397650244023176 0 0 0
531 33 2 0.5564 7.9705867579949565 -5.160517827640238 -9.322205949758448 -1 0 0
529 33 1 -1.1128 8.177885842215435 -6.064170444514189 -9.560263048841236 -1 0 0
530 33 2 0.5564 9.086239832158046 -6.030959333164575 -9.860299940142928 -1 0 0
1003 191 1 -1.1128 9.636731419856446 -5.002589970735358 -1.8222719544072128 0 0 0
649 73 1 -1.1128 6.861838837706414 -4.141852487572178 -1.6946101931124067 -1 0 0
651 73 2 0.5564 6.026815930294433 -3.9145610643561044 -2.103644536398859 -1 0 0
650 73 2 0.5564 6.620665371889706 -4.673776662820957 -0.9362405785988885 -1 0 0
1004 191 2 0.5564 10.224144896346427 -4.2584449130882716 -1.6902650473443461 0 0 0
586 52 1 -1.1128 -12.072036310505819 -8.80391586518935 -6.740504115212381 0 0 0
1270 280 1 -1.1128 10.957976148479867 -8.438277217355418 -3.0336797409909106 0 1 0
789 119 2 0.5564 10.716661827755582 -5.636865487164975 -3.327962313979783 0 0 0
587 52 2 0.5564 -11.80016006424296 -9.329119867911691 -5.987858137156428 0 0 0
1301 290 2 0.5564 6.279288906050609 -10.258745503332559 -0.8426873940591836 -1 0 0
787 119 1 -1.1128 11.51434698779829 -5.902815027380165 -3.785347371924714 0 0 0
788 119 2 0.5564 11.249063071026168 -5.98720874529536 -4.701171608548195 0 0 0
570 46 2 0.5564 4.002827737668717 11.513816539065264 -9.094517944923464 0 -1 0
1042 204 1 -1.1128 11.56508215446876 -5.690604758326576 -9.384484894838385 -1 0 0
772 114 1 -1.1128 11.032707624397005 11.775215330186882 -3.841126775974874 0 -1 0
1980 516 2 0.5564 9.106378507414078 -4.038144835324721 -5.73553166876342 -1 0 0
781 117 1 -1.1128 9.623093317853519 -9.266174737795456 -0.6520884316932335 0 0 0
783 117 2 0.5564 9.319032604721379 -10.02492820014574 -1.1501568592118319 0 0 0
1204 258 1 -1.1128 5.412937316100866 -7.335785231496899 -2.0309129861059696 0 0 0
1205 258 2 0.5564 5.4545176763810685 -7.53367603809524 -1.0953157464175776 0 0 0
1036 202 1 -1.1128 -10.867281187395276 -9.558040776681628 -1.9572747086761042 0 0 0
568 46 1 -1.1128 4.661094639834584 10.841217267114942 -8.919798374312586 0 -1 0
1025 198 2 0.5564 -5.389252650655336 12.082361194791 -2.2038442664921982 0 -1 0
2384 0 3 1 -10.671858031936457 -4.843350751525836 -4.689205066580484 0 0 0
453 7 2 0.5564 5.158954902262977 6.2686843175833635 -4.813670739018617 -1 -1 0
806 125 2 0.5564 -10.350968869251265 4.265356618929607 -0.829973333593413 0 0 0
1741 437 1 -1.1128 -7.67328645702981 1.7423455317484642 -2.1444714274268097 0 -1 0
2034 534 2 0.5564 -4.3330214463881065 -1.7664100818072959 -5.828453582919897 0 0 0
1550 373 2 0.5564 -8.784707349633115 -2.9574304728455068 -6.087929277508589 0 0 0
583 51 1 -1.1128 -7.664886650004122 -1.029388288984029 -1.6458906572607017 0 -1 0
123 0 5 0 -7.79176713312817 -1.6625661553387079 -13.981375452882595 0 0 0
135 0 5 0 -7.857936389703215 2.2433334253822483 -13.984584066719602 0 0 0
112 0 5 0 -9.838846123673218 -3.754143671439819 -14.06318462556335 0 0 0
126 0 5 0 -5.775804104371493 0.24947427242210243 -13.992570037958371 0 0 0
184 0 5 0 -7.871261018627741 -3.758950945025374 -11.972537892092635 0 0 0
195 0 5 0 -9.908478052547485 -1.7807912158646928 -12.031186360172157 0 0 0
767 112 2 0.5564 -8.376947922121262 -2.9078049103706944 -8.532171220876592 0 0 0
768 112 2 0.5564 -6.952085634702919 -2.4350629466485327 -8.727562600697883 0 0 0
766 112 1 -1.1128 -7.752346292212522 -2.244775726618096 -8.238067405474531 0 0 0
197 0 5 0 -5.826230134069559 -1.7477424354977833 -11.967219911848003 0 0 0
1549 373 1 -1.1128 -9.19645933712132 -3.0024500011400086 -5.224989304080021 0 0 0
1551 373 2 0.5564 -8.519561242190296 -2.6991244875065554 -4.619981460057718 0 0 0
840 136 2 0.5564 -8.809640478368696 -0.7712080936175462 -9.345035997357233 0 0 0
839 136 2 0.5564 -10.276509017571376 -0.6951875749405568 -9.711659853164257 0 0 0
196 0 5 0 -7.8569788861132075 0.27599986918346797 -11.883406014275414 0 0 0
838 136 1 -1.1128 -9.492614283329791 -0.15528935689482706 -9.610409863642989 0 0 0
842 137 2 0.5564 -5.203847632544058 -0.71301760594332 -7.351301925085273 0 0 0
841 137 1 -1.1128 -5.834575811650175 -0.9010085354518709 -6.656267216583808 0 0 0
811 127 1 -1.1128 -11.614930213521566 -2.0430894985289534 -9.90620704691115 0 0 0
812 127 2 0.5564 -10.864555057184218 -2.624779111468454 -9.784526282694612 0 0 0
843 137 2 0.5564 -6.57285191189308 -1.3112538678189043 -7.10668818257066 0 0 0
1027 199 1 -1.1128 -9.693931990591926 2.2850484787781484 -4.043542796183914 0 0 0
1167 245 2 0.5564 -11.125737369472096 2.819491358302617 -9.564721896447727 0 0 0
1028 199 2 0.5564 -10.072149967216813 1.4090532741720125 -4.119801903608503 0 0 0
1183 251 1 -1.1128 -10.942229476441579 -2.812968299131241 -2.9126256073618495 0 0 0
1029 199 2 0.5564 -9.096716484634824 2.224523219850519 -3.2979542801224815 0 0 0
1184 251 2 0.5564 -10.071058825952822 -3.085645011464866 -2.6246302541910795 0 0 0
207 0 5 0 -9.88072899922937 2.3483207411438594 -11.90215720600956 0 0 0
209 0 5 0 -5.769980266645289 2.256445507506184 -12.037258008956789 0 0 0
735 101 2 0.5564 -11.579710949290275 -0.30662528017114604 -4.586980696205038 0 0 0
733 101 1 -1.1128 -10.634738583716757 -0.30839979157174346 -4.434481694819406 0 0 0
1123 231 1 -1.1128 -6.864750262040359 -2.0769063189440327 -4.056613495338746 0 0 0
114 0 5 0 -5.806029944778497 -3.7525553111807413 -13.994242133891987 0 0 0
124 0 5 0 -9.837723442841877 0.3090891962068963 -13.999484465945779 0 0 0
1126 232 1 -1.1128 -4.217890703183045 2.5535823090296965 -2.563489444227632 0 0 0
516 28 2 0.5564 -11.116020817899136 -3.7641757384418146 -7.116604683577433 0 0 0
1124 231 2 0.5564 -6.710110337070288 -1.4458922166246073 -4.759564278648676 0 0 0
1125 231 2 0.5564 -6.3562552787508775 -2.8473997021762725 -4.309608730726542 0 0 0
514 28 1 -1.1128 -11.79835647743448 -3.7637929582396485 -6.445299383325492 0 0 0
734 101 2 0.5564 -10.260626875555639 -0.6413156441808519 -5.250226330999895 0 0 0
831 133 2 0.5564 -7.73466276116584 1.9749126570010949 -9.060837873815196 0 0 0
1165 245 1 -1.1128 -11.627651247166456 2.0058249920778053 -9.51715241436051 0 0 0
1166 245 2 0.5564 -11.132107762983548 1.3864996249944468 -10.052973987914326 0 0 0
182 0 5 0 -11.904596054474798 -3.743766717811511 -12.15607782640943 0 0 0
194 0 5 0 -11.90491274174274 0.3571858716926816 -12.044869277217817 0 0 0
133 0 5 0 -11.946606341555464 2.327785242652165 -14.031726885912281 0 0 0
121 0 5 0 -11.883631756516348 -1.715546997267712 -14.052099536002073 0 0 0
1128 232 2 0.5564 -3.2610954288453873 2.529515451858465 -2.549477623880366 0 0 0
1132 234 1 -1.1128 -5.832544197526792 2.3141582112702634 -5.995619595404586 0 0 0
1134 234 2 0.5564 -5.839429406985752 1.3839974882627617 -5.769819937192229 0 0 0
1133 234 2 0.5564 -6.757123189660039 2.5482971303534625 -6.076642047792092 0 0 0
678 82 2 0.5564 -8.448062300033435 2.303238437493277 -7.027571579148392 0 0 0
677 82 2 0.5564 -8.934891939817854 2.5984166919937604 -5.624800875866906 0 0 0
830 133 2 0.5564 -9.171880297919609 1.5089379605159101 -9.156590385608771 0 0 0
829 133 1 -1.1128 -8.637285001396693 2.2828518158079016 -8.979116160891234 0 0 0