LAMMPS data file via write_data, version 2 Aug 2023, timestep = 30000, units = real

1647 atoms
5 atom types
790 bonds
1 bond types
395 angles
1 angle types

-12.120000000000001 12.120000000000001 xlo xhi
-12.120000000000001 12.120000000000001 ylo yhi
-20.2 20.2 zlo zhi

Masses

1 15.9994
2 1.008
3 28.99
4 35.453
5 26.9815

Atoms # full

217 0 5 0 -6.362025098866143 -7.936591758374667 -15.820715656951064 0 0 0
229 0 5 0 -6.342348578857176 -3.946968391235119 -15.772155467236983 0 0 0
10 0 5 0 -8.40848014356183 -5.93988215129665 -15.774107404068806 0 0 0
12 0 5 0 -10.433059658266213 -6.002717640749234 -13.82283141217585 0 0 0
9 0 5 0 -10.34452026862907 -7.973241257321505 -15.815631538173813 0 0 0
21 0 5 0 -10.484705534133292 -4.022376262501039 -15.892817448592195 0 0 0
22 0 5 0 -8.411108123333456 -1.998962676723747 -15.866756567955813 0 0 0
23 0 5 0 -8.391521208864662 -3.8868261819118364 -13.806753150846216 0 0 0
24 0 5 0 -10.462410597027448 -1.9943474054021229 -13.853900092064066 0 0 0
253 0 5 0 -6.333139674146523 -8.026897471719584 -11.77277867555455 0 0 0
41 0 5 0 -10.315430475865329 -7.966625713560468 -11.782126530191361 0 0 0
42 0 5 0 -8.296929884325193 -5.944980745692504 -11.917152619687355 0 0 0
47 0 5 0 -10.357382335057984 -4.0136945442559995 -11.788834021098607 0 0 0
48 0 5 0 -8.284946414392637 -1.9712374865087334 -11.750674980351981 0 0 0
230 0 5 0 -4.372651284944692 -1.9291029451571817 -15.963351353666905 0 0 0
11 0 5 0 -8.287034924316965 -8.042976232886183 -13.769787650348935 0 0 0
259 0 5 0 -6.331459008315084 -3.957291085091605 -11.882837439645218 0 0 0
232 0 5 0 -6.296262075553119 -1.875445830858711 -13.853871177090653 0 0 0
220 0 5 0 -6.313429360546068 -5.9558636271409595 -13.844211299012168 0 0 0
218 0 5 0 -4.310411459405133 -5.9676567550156046 -15.850224132552176 0 0 0
231 0 5 0 -4.229321643613372 -3.9330723732939843 -13.888976438604864 0 0 0
254 0 5 0 -4.382813576959314 -5.937438180196233 -11.810229138815377 0 0 0
219 0 5 0 -4.318676008390702 -7.983674720495023 -13.797957643014945 0 0 0
260 0 5 0 -4.317700951674199 -1.930318015459075 -11.891935364633268 0 0 0
221 0 5 0 -2.2728842648389227 -7.995637450954845 -15.821275147832367 0 0 0
224 0 5 0 -2.3106765528488715 -5.980156774236604 -13.871767878378911 0 0 0
236 0 5 0 -2.264652577938994 -1.9051561831025834 -13.872121524959528 0 0 0
255 0 5 0 -2.377101500656881 -7.9871278254916485 -11.80447372853365 0 0 0
233 0 5 0 -2.2507784160276203 -3.9134717335932363 -15.886602779453268 0 0 0
261 0 5 0 -2.332125293120843 -3.962827120898369 -11.80918190753172 0 0 0
162 0 5 0 -8.288971713391486 -10.02758582603755 -11.781827800055193 0 1 0
352 0 5 0 -6.32223488515245 -10.046493358162492 -13.756739846631682 0 1 0
356 0 5 0 -2.307196311184237 -10.067272040779796 -13.71456575428868 0 1 0
144 0 5 0 -10.301039294475958 -10.008399697323688 -13.749718957998695 0 1 0
142 0 5 0 -8.294162061408937 -9.988649000518626 -15.801603479256173 0 1 0
374 0 5 0 -4.309535219387441 -10.12134451603308 -11.737724821080894 0 1 0
350 0 5 0 -4.286373683914493 -10.077356899565567 -15.802304353870056 0 1 0
354 0 5 0 -0.32470522995529105 -10.025573856675129 -15.727607031951026 0 1 0
262 0 5 0 -0.27091579680130323 -1.9729862800591675 -11.778363924730517 0 0 0
235 0 5 0 -0.2853772657259246 -3.9456668678146896 -13.771590020507379 0 0 0
256 0 5 0 -0.31549202496771794 -6.008899544280853 -11.864888019243647 0 0 0
223 0 5 0 -0.2680267375616572 -8.055549219874193 -13.741497097824311 0 0 0
222 0 5 0 -0.23698207508295252 -6.021392283045634 -15.7096127570597 0 0 0
376 0 5 0 -0.3751172719405688 -10.03103394844915 -11.727700601256235 0 1 0
143 0 5 0 -8.319731122806159 -12.053674130971247 -13.733898214283899 0 1 0
351 0 5 0 -4.268445867762232 -12.049631056830071 -13.734859613770695 0 1 0
1215 261 2 0.5564 -12.04002995480306 -1.9652872309342995 -1.9306985548982296 0 1 0
1591 387 1 -1.1128 -0.835742516985444 -7.985383262902937 -1.457163478249957 0 0 0
1922 497 2 0.5564 -0.30023539098682633 -0.9029619217352568 -1.001586436438574 0 0 0
1283 284 2 0.5564 -0.38212444152271796 -11.843451002064173 -1.3674735585833881 -1 1 0
355 0 5 0 -0.27163204856519185 -12.103707883199105 -13.757994870570183 0 1 0
446 5 2 0.5564 -11.098340644451469 -0.7715090113288479 -7.758764138349053 0 0 0
2111 560 2 0.5564 -0.09685341462667804 -10.396124418330256 -6.016295750540204 0 1 0
234 0 5 0 -0.26547396427437103 -1.9740949573074136 -15.936490582175288 0 0 0
1474 348 1 -1.1128 -4.484770938900379 -0.40661719522525924 -8.86212726226505 1 0 0
1655 408 2 0.5564 -0.660540166346649 -3.385064826721029 -0.18987695058373721 0 0 0
847 139 1 -1.1128 -10.91814324900384 -5.95224525933958 -3.2291180635139014 0 0 0
1654 408 1 -1.1128 -1.454970712077687 -3.421922302183241 -0.7225640789544298 0 0 0
557 42 2 0.5564 -11.706387340396248 -11.824812347742288 -0.09202283670386661 0 0 0
1978 516 1 -1.1128 -12.001568238679795 -9.305197655853664 -5.357109477092938 0 1 0
2147 572 2 0.5564 -7.723934640588416 -11.38260076808656 -7.107635434142668 0 1 0
2187 585 2 0.5564 -2.742702843535639 -11.77602967638569 -1.1209226352395196 0 1 0
2106 558 2 0.5564 -10.046377754754767 -4.041614718254213 -0.8487780280294105 1 0 0
2184 584 2 0.5564 -11.761421267509183 -6.047320161180543 -4.908959824645089 0 1 0
1318 296 1 -1.1128 -3.729050465984176 -7.134988985110249 -0.23082386112408312 0 1 0
993 187 2 0.5564 -10.223290471351506 -3.9994679749398436 -9.073367792347076 0 1 0
349 0 5 0 -6.38434588407065 -12.048968767060632 -15.733596504497557 0 1 0
1418 329 2 0.5564 -2.3472532773943837 -10.953888228755632 -9.356370414360194 0 0 0
2185 585 1 -1.1128 -3.5879472302554785 -11.491136805595016 -0.7736014794359818 0 1 0
849 139 2 0.5564 -10.41426461571116 -5.513706614659679 -2.543536275347131 0 0 0
1006 192 1 -1.1128 -11.234487427773793 -2.6680494540122117 -4.01400464115994 0 1 0
161 0 5 0 -10.35756858953372 -11.962284547593539 -11.70380249101219 0 1 0
1107 225 2 0.5564 -7.347014819821146 -8.621291795357697 -1.3794933572591965 0 1 0
2183 584 2 0.5564 -10.882273470310123 -5.362912504153466 -5.933938171909681 0 1 0
2035 535 1 -1.1128 -10.922108811213132 -10.079973629666581 -9.324437178838082 0 1 0
1031 200 2 0.5564 -9.80348971990823 -8.54696676845453 -9.058591495734053 0 1 0
1105 225 1 -1.1128 -7.71929645240006 -7.803372920565558 -1.0498769190261903 0 1 0
1419 329 2 0.5564 -2.031599471646046 -11.09981216709695 -7.882950806552177 0 0 0
1638 402 2 0.5564 -2.20008404630173 -3.162500525759567 -4.455892731699728 0 0 0
1985 518 2 0.5564 -7.658834280211179 -5.598159716954004 -5.790182781051192 0 1 0
2152 574 1 -1.1128 -3.634710575140231 -8.964884407532992 -2.3690389015487066 0 1 0
2153 574 2 0.5564 -3.8821165045738613 -9.712452251563608 -1.8248279664918576 0 1 0
991 187 1 -1.1128 -11.133015802657152 -3.7059483070478616 -9.02357807258162 0 1 0
1098 222 2 0.5564 -1.923504442396305 -10.333845345117698 -4.945625592417807 0 1 0
2154 574 2 0.5564 -4.216941052345264 -9.016712666064727 -3.1270320980299777 0 1 0
1236 268 2 0.5564 -1.9643207746442757 -6.8487353449425115 -2.853984519832834 0 1 0
2182 584 1 -1.1128 -11.747004358610091 -5.7575622807951445 -5.821135785991178 0 1 0
2105 558 2 0.5564 -9.092085228879561 -4.122110158919442 -2.0212717237069358 1 0 0
1096 222 1 -1.1128 -2.306557675516038 -10.719751047204007 -4.157857302902228 0 1 0
1582 384 1 -1.1128 -0.21911728751428516 -8.401397916420867 -8.335880260405464 0 0 0
2146 572 1 -1.1128 -7.5343188870438045 -10.90904690099138 -6.297682058780213 0 1 0
1974 514 2 0.5564 -5.957071745319441 -1.9294337766124874 -9.256410734344438 0 1 0
980 183 2 0.5564 -6.105124200448735 -6.09288570345907 -9.090788265112593 0 1 0
1973 514 2 0.5564 -7.156814216639491 -1.0415497643026448 -9.003082364429236 0 1 0
1593 387 2 0.5564 -1.7089907816389125 -8.092005246984927 -1.0799353329627253 0 0 0
1535 368 2 0.5564 -3.3782396978054603 -8.192326531374322 -7.890868024600284 0 0 0
2072 547 2 0.5564 -5.858784288001888 -9.037505494556209 -5.52528489910639 0 1 0
2073 547 2 0.5564 -6.314787913395569 -7.79854126399346 -4.784390609058044 0 1 0
998 189 2 0.5564 -9.770518208620283 -8.949442770248702 -3.345366297886808 0 1 0
1952 507 2 0.5564 -0.9146625159288118 -5.048020705161075 -8.037790911782936 0 1 0
1689 419 2 0.5564 -1.710572041496019 -5.240254209164112 -6.181706356744135 0 0 0
2148 572 2 0.5564 -8.112403767123151 -10.14659697167227 -6.324512460294904 0 1 0
1431 333 2 0.5564 -8.977893570589767 -8.131638691856743 -6.954907542640682 1 0 0
1636 402 1 -1.1128 -2.0430556964684077 -2.2424766268934633 -4.243454531992084 0 0 0
719 96 2 0.5564 -3.971144155165515 -0.658924286541471 -4.655460459272898 0 0 0
669 79 2 0.5564 -7.582842060329106 -5.2866930898201145 -3.322884948040764 0 0 0
999 189 2 0.5564 -8.86807449119365 -7.973883015538218 -2.620263753751726 0 1 0
1097 222 2 0.5564 -2.6468010779899505 -9.972598798016378 -3.665688830789646 0 1 0
1637 402 2 0.5564 -1.2418008137001435 -2.0200791962556526 -4.717545088304627 0 0 0
2112 560 2 0.5564 -0.8968098642273195 -9.30132208709364 -6.689625638147163 0 1 0
1234 268 1 -1.1128 -2.6861072115017324 -6.252789009802363 -3.0542451316475736 0 1 0
1984 518 1 -1.1128 -6.9271597858682075 -5.851815563700156 -5.227560041624234 0 1 0
1558 376 1 -1.1128 -7.088432898774371 -2.07362093517651 -5.839690973629542 0 0 0
1659 409 2 0.5564 -0.3550778274313298 -8.349204592536976 -4.460554312163825 0 0 0
1195 255 1 -1.1128 -6.973332766144441 -10.127434590361776 -2.2482244769706683 0 1 0
1001 190 2 0.5564 -9.504339698753341 -11.059943071502328 -3.01686090769173 0 1 0
1407 325 2 0.5564 -2.283504802122433 -2.4245545192874434 -8.21160648963405 0 0 0
1623 397 2 0.5564 -5.90236487054935 -9.445512947869359 -8.416409906905539 0 0 0
979 183 1 -1.1128 -6.743778083509368 -6.79552778140402 -9.211818483066175 0 1 0
455 8 2 0.5564 -2.4293601580893673 -0.775491939575218 -1.6541212164686503 0 0 0
491 20 2 0.5564 -4.358333543883329 -1.9796175778615708 -1.7755240930606075 0 0 0
2071 547 1 -1.1128 -5.975319569214788 -8.68245071141479 -4.644042619415792 0 1 0
1622 397 2 0.5564 -6.380449132472109 -10.388142504372885 -9.50028278377175 0 0 0
1026 198 2 0.5564 -9.545373241436348 -3.9550119209324635 -6.712673654110782 0 1 0
454 8 1 -1.1128 -1.5685585044511634 -0.7029367311344729 -2.066417473639803 0 0 0
2144 571 2 0.5564 -11.42325467960519 -6.871840354215602 -8.97483803227061 0 1 0
1032 200 2 0.5564 -8.562946600232095 -7.681280018357092 -9.118057389258066 0 1 0
1584 384 2 0.5564 -0.5396578688401324 -9.121224849422726 -8.879327381193079 0 0 0
456 8 2 0.5564 -1.6524091555585738 -1.1923293960451822 -2.8847669430593315 0 0 0
1197 255 2 0.5564 -7.3704642342759525 -10.938884432631582 -2.5645603444541636 0 1 0
500 23 2 0.5564 -7.890350038865283 -1.5802313463567863 -0.976203055008698 0 0 0
1175 248 2 0.5564 -4.329916350978045 -10.712451305453218 -7.229002797846662 0 1 0
1560 376 2 0.5564 -6.937865288651853 -3.0143904685583185 -5.747418281052038 0 0 0
848 139 2 0.5564 -10.47520237816782 -6.791742082597481 -3.352738938350235 0 0 0
1174 248 1 -1.1128 -4.951648966008937 -10.236619093791793 -6.678308591126533 0 1 0
1559 376 2 0.5564 -7.156588584602548 -1.9329754586481116 -6.784046342238613 0 0 0
1024 198 1 -1.1128 -9.051139788041462 -4.773067226673021 -6.660226938769976 0 1 0
606 58 2 0.5564 -3.7945716503249 -4.553680822745198 -9.0207933199889 0 0 0
2036 535 2 0.5564 -11.752201856798662 -10.121681211137055 -8.849633485190154 0 1 0
604 58 1 -1.1128 -4.590055954604235 -5.061962224607357 -8.86240584924843 0 0 0
668 79 2 0.5564 -7.465026109003675 -5.994324899769356 -1.9897410975348875 0 0 0
1688 419 2 0.5564 -2.3680902196922364 -5.505559904258864 -4.844103884972385 0 0 0
1986 518 2 0.5564 -6.175841835725662 -5.376224404953673 -5.581915419218396 0 1 0
1176 248 2 0.5564 -5.714436252368281 -10.812405401575479 -6.624842036895849 0 1 0
1025 198 2 0.5564 -8.992395340592386 -5.076464752393398 -7.566168935180575 0 1 0
462 10 2 0.5564 -8.03188821683474 -5.5034148058048995 -9.549845764432204 0 0 0
1405 325 1 -1.1128 -2.225922831156068 -3.008174626375597 -8.968114078256914 0 0 0
568 46 1 -1.1128 -5.002629836678314 -4.0886772314541435 -6.199365196828142 0 0 0
1007 192 2 0.5564 -10.5003690976894 -2.059001826264873 -4.093781427284152 0 1 0
558 42 2 0.5564 -10.63990603089588 -11.206857028932344 -0.9710251679687004 0 0 0
1979 516 2 0.5564 -11.051033301458727 -9.214839132475507 -5.424569908048334 0 1 0
1429 333 1 -1.1128 -9.15031134381513 -8.758482426016851 -6.25236102948295 1 0 0
646 72 1 -1.1128 -5.092892238879603 -3.5156456815749086 -2.4305389283543626 -1 0 0
1008 192 2 0.5564 -10.881682940781335 -3.405194877502801 -3.5156292188367297 0 1 0
569 46 2 0.5564 -4.109428244163051 -3.857451196371355 -5.9444979692942175 0 0 0
1030 200 1 -1.1128 -9.46335932385133 -7.692420946783374 -8.793457600266327 0 1 0
605 58 2 0.5564 -4.274243469693249 -5.9305804250930665 -8.613414311133926 0 0 0
492 20 2 0.5564 -3.9963692323987066 -1.9081579660982702 -0.3072698346258264 0 0 0
1430 333 2 0.5564 -9.01624311869171 -8.25904883666622 -5.446864640342325 1 0 0
1002 190 2 0.5564 -10.97615443062344 -11.06635986533384 -3.371283574245667 0 1 0
501 23 2 0.5564 -6.770321919009864 -2.39151145694651 -1.5920413447485389 0 0 0
1951 507 1 -1.1128 -1.0541016963667313 -5.885316762555634 -7.595383642519453 0 1 0
1000 190 1 -1.1128 -10.346000515902775 -10.682071312956387 -2.7618082290047457 0 1 0
1406 325 2 0.5564 -1.306752396784094 -3.2737447440159015 -8.996925474963502 0 0 0
1972 514 1 -1.1128 -6.839213197043063 -1.9367591736780172 -8.884920356918228 0 1 0
1687 419 1 -1.1128 -2.2803637666032097 -4.83904989079442 -5.525500306968361 0 0 0
997 189 1 -1.1128 -9.263835784781946 -8.147647336816272 -3.4743192670062326 0 1 0
570 46 2 0.5564 -4.92910373229929 -4.356485494411092 -7.115391674512852 0 0 0
1235 268 2 0.5564 -2.881142241689328 -5.823603400360941 -2.221182721115299 0 1 0
1953 507 2 0.5564 -0.7868957611219476 -6.543284122563647 -8.23718770387277 0 1 0
1319 296 2 0.5564 -4.167947472425125 -7.695655384622626 -0.870554064152554 0 1 0
1621 397 1 -1.1128 -5.9916370107123536 -9.523802548882513 -9.366217015264937 0 0 0
1534 368 1 -1.1128 -3.9270098454896742 -7.7052680052598355 -8.505569039820932 0 0 0
2037 535 2 0.5564 -10.702812430628855 -10.99402240184633 -9.50514717534816 0 1 0
724 98 1 -1.1128 -9.096250845495605 -0.6878265212022981 -4.4538310900401115 0 0 0
647 72 2 0.5564 -5.243092172924085 -4.4383816379414025 -2.225038841632567 -1 0 0
1656 408 2 0.5564 -1.6723204844758368 -2.50545099410693 -0.8930674671366384 0 0 0
499 23 1 -1.1128 -7.3859980868847686 -1.6839339689144825 -1.7831151165236823 0 0 0
725 98 2 0.5564 -8.307865824282635 -1.1541043581186403 -4.731798539278972 0 0 0
460 10 1 -1.1128 -8.49207124991649 -4.703747809524274 -9.294900750289067 0 0 0
2110 560 1 -1.1128 -0.6395554673791459 -9.630366188214712 -5.828357433141337 0 1 0
461 10 2 0.5564 -7.794932612609816 -4.078349196680279 -9.097147170646545 0 0 0
2104 558 1 -1.1128 -9.951769649853217 -3.786958830642921 -1.7666187235424593 1 0 0
353 0 5 0 -2.3257445730809794 -11.986388282586818 -15.847299991182096 0 1 0
490 20 1 -1.1128 -3.893666901217106 -1.4400436645180064 -1.1358548334382046 0 0 0
981 183 2 0.5564 -6.220663172161837 -7.552498852030266 -9.475594805456135 0 1 0
667 79 1 -1.1128 -7.594790484994782 -5.129424981721875 -2.3787679576023466 0 0 0
1196 255 2 0.5564 -6.605026728418962 -9.71915126210645 -3.031734741501799 0 1 0
1284 284 2 0.5564 -1.438402686258383 -11.43223867873125 -2.3710062902081277 -1 1 0
1999 523 1 -1.1128 -8.277423104252799 -11.910866015965677 -3.835415055428095 0 1 0
1536 368 2 0.5564 -4.125039114114871 -8.333390593279733 -9.20017577064446 0 0 0
648 72 2 0.5564 -5.80156565579661 -3.2851262319089938 -3.031267428034572 -1 0 0
718 96 1 -1.1128 -4.686840242534353 -0.36490794614374816 -5.2189900327367935 0 0 0
1417 329 1 -1.1128 -2.2507457452783943 -10.44845618358886 -8.54924177903448 0 0 0
720 96 2 0.5564 -5.058792901624157 -1.1717516328064053 -5.575201554520717 0 0 0
1214 261 2 0.5564 -11.116350598608564 -1.942106592685798 -0.7314594587486569 0 1 0
657 75 2 0.5564 -8.705508543761153 -0.10594974293872349 -2.3233092725510835 0 0 0
1658 409 2 0.5564 -0.2118671411964091 -7.984928316214178 -2.9981279966737313 0 0 0
1106 225 2 0.5564 -7.368643594377171 -7.720281969211571 -0.1631016804277625 0 1 0
556 42 1 -1.1128 -10.761188174389897 -11.685769203734411 -0.15116715912049225 0 0 0
992 187 2 0.5564 -11.649184018138895 -4.504716640620413 -9.132079350134372 0 1 0
1448 339 2 0.5564 -0.5111719163601243 -0.9290712879164927 -10.034646801796534 0 0 0
447 5 2 0.5564 -11.5071409845398 -2.14274162845004 -8.253235587569101 0 0 0
1592 387 2 0.5564 -0.2901087147558398 -8.61028376088876 -0.9796542826900673 0 0 0
445 5 1 -1.1128 -11.790450851667194 -1.4283347985607344 -7.682628622041546 0 0 0
750 106 2 0.5564 -1.7945929757435346 -0.05269558714896068 -7.888437400691932 0 0 0
2001 523 2 0.5564 -8.093611342325278 -11.587875825820586 -4.717527557469167 0 1 0
1213 261 1 -1.1128 -11.898250709745716 -1.5246641268728935 -1.0928544650668737 0 1 0
1447 339 1 -1.1128 -0.45050350652131715 -0.3338703867733804 -9.287460696899046 0 0 0
749 106 2 0.5564 -3.268553401631683 -0.05262507941890722 -7.542987158543089 0 0 0
141 0 5 0 -10.364052741833417 -12.03396491363318 -15.708748570145156 0 1 0
1282 284 1 -1.1128 -1.2599462087173428 -12.06680332218171 -1.6769504082124709 -1 1 0
2276 615 2 0.5564 -11.954350279432333 -0.12337272355442731 -2.119286632762749 1 0 0
748 106 1 -1.1128 -2.398129349989387 -0.017015729924767152 -7.14634396740571 0 0 0
1635 401 2 0.5564 -0.3080359359766589 -4.320171326846236 -3.173990460111899 0 0 0
375 0 5 0 -2.274047877839388 -12.083037672324945 -11.64701950098998 0 1 0
1476 348 2 0.5564 -4.214874083516415 -0.07117607793074608 -9.717034744358006 1 0 0
373 0 5 0 -6.325191137204575 -12.117872936170695 -11.743233104563776 0 1 0
2395 0 4 -1 -10.635864969601329 -4.941522176361273 8.834348982808873 0 0 0
799 123 1 -1.1128 -2.8118285965759355 -0.373722791114256 6.722617654129168 0 0 0
703 91 1 -1.1128 -0.9694806520079435 -5.598038275180935 6.687968326671473 0 0 0
766 112 1 -1.1128 -8.21647674552403 -5.24595503797992 6.676790801035541 0 0 0
1332 300 2 0.5564 -5.360517803845162 -5.511975605644949 8.390233281289719 0 1 0
684 84 2 0.5564 -2.4980303338513092 -4.358043705328424 0.41335977630145493 0 0 0
1334 301 2 0.5564 -5.6009367985719525 -9.808946025169396 8.275856514613384 0 1 0
2310 626 2 0.5564 -2.6873366138055608 -5.397993895245349 2.494520355684153 0 1 0
405 0 5 0 -0.060286070969166376 -11.257320095507797 13.671047725481353 0 1 0
886 152 1 -1.1128 -12.076304128368443 -5.571766572584327 2.758746541593551 0 0 0
705 91 2 0.5564 -0.6948920196703542 -4.881515349973469 6.1157551712793765 0 0 0
1664 411 2 0.5564 -4.883550995783167 -8.185482166466855 3.481562441284786 0 0 0
698 89 2 0.5564 -4.350383342740737 -2.493166216563649 6.9242527636908315 0 0 0
1242 270 2 0.5564 -2.154287506014001 -4.3903908242311696 7.595746334529291 0 1 0
1291 287 1 -1.1128 -5.540767049282429 -7.129040926917232 6.989551752734669 0 1 0
1241 270 2 0.5564 -2.8271933562664593 -4.5286843839287645 8.944808167943394 0 1 0
581 50 2 0.5564 -1.6367303069384138 -0.8521060261498775 3.2563212593540243 0 0 0
1331 300 2 0.5564 -5.522771429899531 -4.007867242136357 8.333426674179655 0 1 0
1330 300 1 -1.1128 -5.718462159914152 -4.770284883988529 8.878088349822173 0 1 0
2390 0 3 1 -8.009827640399292 -5.024110174684184 9.013075417737115 1 1 0
214 0 5 0 -8.173256475048154 -9.223686567599053 15.587238829961537 0 1 0
580 50 1 -1.1128 -2.541354384469919 -0.9596844071018314 3.5501153657317865 0 0 0
673 81 1 -1.1128 -7.697982731307351 -0.6263704778474027 5.7601386004216355 0 0 0
1203 257 2 0.5564 -0.9135902098748985 -0.8893170315977884 6.484532887173711 0 0 0
2402 0 4 -1 -7.363500883828642 -10.652558154019916 8.509924706836626 0 1 0
1231 267 1 -1.1128 -3.5100855238907687 -7.0567409150076745 9.343443313052893 0 1 0
768 112 2 0.5564 -7.660177585261382 -4.780108310176014 6.052490764228485 0 0 0
488 19 2 0.5564 -6.29256020957561 -2.6888759055899523 1.0996029950157749 0 0 0
100 0 5 0 -8.10891110719313 -1.1376128149434446 15.766094732787874 0 0 0
1068 212 2 0.5564 -11.17990818262527 -10.070348295841995 6.454420152423414 0 1 0
699 89 2 0.5564 -4.672613837490564 -3.8182230530027805 6.266766682952708 0 0 0
62 0 5 0 -10.17680423876169 -5.1427370479007095 13.707716086973393 0 0 0
792 120 2 0.5564 -0.8487746976434231 -5.853361191028803 3.2979659989577956 0 0 0
697 89 1 -1.1128 -5.076430061828407 -3.0875427836849263 6.7350315739263245 0 0 0
709 93 1 -1.1128 -7.953433124683472 -7.323511912400004 9.231137147354671 0 0 0
2309 626 2 0.5564 -2.913849355100941 -5.410803251004576 3.9913251517567603 0 1 0
1384 318 1 -1.1128 -8.071789978916927 -7.7883134369073135 5.378488139572629 0 1 0
1385 318 2 0.5564 -8.039988318047332 -6.8495885860807855 5.562924048738683 0 1 0
1402 324 1 -1.1128 -10.274439929255362 -1.3539391454474377 9.490985615969349 0 1 0
2308 626 1 -1.1128 -2.540402686307137 -5.928175352276146 3.2778156760676316 0 1 0
2293 621 1 -1.1128 -8.167882141929962 -2.6359051091334913 8.636811949481318 0 1 0
904 158 1 -1.1128 -11.674552961901275 -7.537907691370179 7.520224546813065 0 1 0
1386 318 2 0.5564 -7.402952689601123 -7.923805184358108 4.707272072546221 0 1 0
2295 621 2 0.5564 -8.940561126296442 -2.2500887822896174 9.049540517643878 0 1 0
1292 287 2 0.5564 -5.27551019113282 -7.935837219919964 7.431085069755893 0 1 0
2374 648 1 -1.1128 -1.773682458735073 -1.4453598329739956 9.277491593067538 0 1 0
767 112 2 0.5564 -9.10324343648022 -4.944230059547435 6.4797149917554 0 0 0
1293 287 2 0.5564 -6.4640445458682985 -7.26452201564622 6.776395586712716 0 1 0
688 86 1 -1.1128 -6.072008484959705 -0.9764789801518396 9.270234441881799 0 0 0
689 86 2 0.5564 -6.805563408961332 -1.5560612120069774 9.06477212470683 0 0 0
1240 270 1 -1.1128 -2.656411104869157 -3.8981268592120077 8.245192217696804 0 1 0
1404 324 2 0.5564 -10.745722400371442 -0.8765309344927987 10.17377863552396 0 1 0
1232 267 2 0.5564 -4.044367023996139 -7.832356406715816 9.172570718522007 0 1 0
2331 633 2 0.5564 -5.246301268325005 -10.518939097834204 5.8531975547926285 1 1 0
2133 567 2 0.5564 -9.639655627439529 -4.831491457033233 1.260362082097033 1 0 0
2356 642 1 -1.1128 -1.2965992122789989 -11.97420585486547 4.439554544134645 1 1 0
690 86 2 0.5564 -5.308533758898071 -1.553490193481158 9.290142037423623 0 0 0
680 83 2 0.5564 -3.380297991031984 -11.650473391291715 6.7946555606267856 0 0 0
711 93 2 0.5564 -8.776815215595196 -7.679759125391111 9.564847633159413 0 0 0
592 54 1 -1.1128 -4.238644292783117 -2.2896126307333144 1.3570928257204937 0 0 0
710 93 2 0.5564 -7.5389384379642035 -8.059101255425626 8.780210226782796 0 0 0
769 113 1 -1.1128 -8.164003852960056 -0.023651782487314567 2.6782576630227757 0 0 0
2329 633 1 -1.1128 -6.071495506407508 -10.13999554532935 5.55039449765299 1 1 0
2375 648 2 0.5564 -0.8313313641190473 -1.3586309294929457 9.421313733778156 0 1 0
2359 643 1 -1.1128 -0.37111613379157293 -8.198466225195208 5.986922504036243 0 1 0
2058 542 2 0.5564 -9.27335322238898 -1.4477860994677014 3.2414721597939957 0 1 0
1663 411 1 -1.1128 -5.778777029726488 -8.134083706162743 3.816466065409406 0 0 0
611 60 2 0.5564 -11.391193102852963 -1.871165594123501 3.9615630852250354 0 0 0
1339 303 1 -1.1128 -1.1202847382694123 -9.295501508321964 3.785429290179948 0 1 0
1665 411 2 0.5564 -5.949496872896524 -9.003194051832018 4.1794176444306315 0 0 0
1202 257 2 0.5564 -0.10542876934143151 -1.9396152077760336 5.752653111801105 0 0 0
995 188 2 0.5564 -9.378584230284583 -5.413360762245136 3.276956806924276 0 1 0
528 32 2 0.5564 -10.860499351312018 -11.144384643580214 2.0512024716139456 0 0 0
2296 622 1 -1.1128 -7.135328472026883 -10.938112652156674 2.2374197690145645 0 1 0
1335 301 2 0.5564 -4.14557149276374 -10.08327941242667 8.589780452883744 0 1 0
996 188 2 0.5564 -8.037377731881662 -4.736096405040895 3.462358342562838 0 1 0
1233 267 2 0.5564 -4.001645124478762 -6.567263119403865 10.002998254463172 0 1 0
784 118 1 -1.1128 -4.600446908972656 -5.412567039790533 5.244691353168338 0 0 0
1222 264 1 -1.1128 -7.1111507833585454 -3.487638889915236 4.523790047253003 0 1 0
2131 567 1 -1.1128 -10.19473801795241 -4.094274825461985 1.0061422368979211 1 0 0
786 118 2 0.5564 -5.058622648012844 -5.815626891842647 4.507229744421543 0 0 0
593 54 2 0.5564 -3.761793218845925 -1.8407061086417393 2.0551815249001213 0 0 0
2218 596 1 -1.1128 -10.568581022236728 -5.5221198279646275 5.074035680294818 1 1 0
1224 264 2 0.5564 -7.725003770707504 -2.760247580251559 4.4222086115830574 0 1 0
2330 633 2 0.5564 -6.574051620773311 -9.988547269286256 6.350852711903562 1 1 0
1848 472 2 0.5564 -0.688847262982641 -6.916170437035803 8.075675057361513 0 0 0
2220 596 2 0.5564 -10.779292258930836 -4.8545332943837805 5.726845842592362 1 1 0
785 118 2 0.5564 -4.594598624724599 -6.088780253433667 5.922137568621093 0 0 0
1902 490 2 0.5564 -6.876525104842282 -11.500424392019704 4.89708091725816 0 1 0
57 0 5 0 -12.1149086322906 -7.225501801257215 13.709834559383616 0 0 0
2161 577 1 -1.1128 -3.5560251045941604 -8.637558968038853 2.3466560759483155 0 1 0
1805 458 2 0.5564 -5.132150277113846 -11.182732931953854 2.5428699265685326 0 1 0
824 131 2 0.5564 -3.1236715935018564 -0.017083083557186567 9.663427264147437 0 0 0
1340 303 2 0.5564 -1.274804511353518 -10.224080809053564 3.9589112442460146 0 1 0
2376 648 2 0.5564 -1.868832017320706 -2.270089915806497 8.801046789611643 0 1 0
994 188 1 -1.1128 -8.555345768604587 -5.227937663403497 2.8251503459773537 0 1 0
2057 542 2 0.5564 -9.862476659644775 -2.693862704904491 2.615273662558347 0 1 0
984 184 2 0.5564 -8.05288725373896 -7.47830384358342 2.0610137002957147 0 1 0
2056 542 1 -1.1128 -9.60196019053004 -2.3205261458636994 3.4572852097134934 0 1 0
905 158 2 0.5564 -11.43201684572702 -6.703465469455137 7.921614985235691 0 1 0
2294 621 2 0.5564 -8.174036710897749 -2.2892119766546246 7.7446248364542365 0 1 0
1333 301 1 -1.1128 -4.7458648636831615 -9.382754283376642 8.334546652199426 0 1 0
704 91 2 0.5564 -0.9999545886682019 -6.36436118143128 6.115209740118713 0 0 0
1846 472 1 -1.1128 -0.6381782162389026 -7.517579227590207 8.818624014471029 0 0 0
76 0 5 0 -4.161944311576722 -1.1330712991055085 11.542424202763389 0 0 0
489 19 2 0.5564 -7.7147188794322625 -2.9068324945394473 1.570618019007947 0 0 0
683 84 2 0.5564 -3.288137571068304 -5.6279694562221145 0.6476979212002854 0 0 0
2163 577 2 0.5564 -2.7365901755604227 -8.798936403800202 2.8143264806709327 0 1 0
2297 622 2 0.5564 -7.521529640147289 -11.206151929524404 3.071228365046625 0 1 0
1403 324 2 0.5564 -10.386357839160437 -0.8203566044141262 8.704221829066215 0 1 0
1223 264 2 0.5564 -6.495361701260121 -3.1902411011057135 5.193559186893079 0 1 0
1067 212 2 0.5564 -11.67375411143053 -11.066993604936568 7.481410678266588 0 1 0
2219 596 2 0.5564 -10.44369828263949 -6.323659837463215 5.582140317773068 1 1 0
1225 265 1 -1.1128 -10.16248600333806 -9.234617389681716 9.270500308469218 0 1 0
2237 602 2 0.5564 -0.1381221406982583 -0.30927349979090185 1.2944593206078574 0 1 0
487 19 1 -1.1128 -7.140977153912322 -2.251820488842739 1.1731112462856428 0 0 0
2298 622 2 0.5564 -7.516386365377609 -10.07773174795145 2.0620016004804276 0 1 0
983 184 2 0.5564 -6.706537397184613 -8.024037980221568 2.486938029337735 0 1 0
1226 265 2 0.5564 -9.513760456749711 -9.78602740020403 8.833081397181582 0 1 0
1647 405 2 0.5564 -9.797441797626997 -8.34086499019443 4.566769895351605 1 0 0
594 54 2 0.5564 -3.8440270137524934 -3.160839549185819 1.318716645655126 0 0 0
982 184 1 -1.1128 -7.239207546768542 -7.842672326246886 1.7125990265135125 0 1 0
428 0 5 0 -0.07010348565558706 -9.160041307784994 15.681244806417773 0 1 0
674 81 2 0.5564 -7.086994556195156 -0.14392707522934123 6.3170709942863805 0 0 0
66 0 5 0 -6.1705067614874185 -5.245261437429387 13.58281761705529 0 0 0
2132 567 2 0.5564 -11.088720668355437 -4.422218481790241 1.1035114422984302 1 0 0
2361 643 2 0.5564 -0.554361224388141 -8.65894128260142 5.168011108055603 0 1 0
2162 577 2 0.5564 -3.9083265486012877 -9.51018974661611 2.1716385600704733 0 1 0
1227 265 2 0.5564 -10.359299273514873 -8.545887582051153 8.635560594628442 0 1 0
675 81 2 0.5564 -8.470743390217375 -0.06389852785333236 5.708195122721066 0 0 0
307 0 5 0 -2.1538716920430825 -7.162659962237958 15.59754746348429 0 0 0
682 84 1 -1.1128 -3.196047461658552 -4.726165313735567 0.9551073795643172 0 0 0
771 113 2 0.5564 -7.597144948481219 -0.5862327556312334 2.1506148178977216 0 0 0
1645 405 1 -1.1128 -10.623359692893015 -8.819994483558542 4.634049419373566 1 0 0
800 123 2 0.5564 -2.957724739381565 -0.5157253227376918 7.657915354263892 0 0 0
1221 263 2 0.5564 -11.435311882772506 -10.480136630474775 9.380324344490699 0 1 0
582 50 2 0.5564 -2.4977430103796845 -0.863587433410647 4.501480461728915 0 0 0
1646 405 2 0.5564 -10.563361908888654 -9.49744492301703 3.9604808255246846 1 0 0
101 0 5 0 -6.136133325154471 -3.079260186216182 15.646100572974792 0 0 0
1847 472 2 0.5564 -1.5327621727491834 -7.5570943378045685 9.156841041367189 0 0 0
526 32 1 -1.1128 -11.021524962351943 -11.019923944855659 2.9865164607561008 0 0 0
94 0 5 0 -8.062335192892188 -5.158302444190187 15.675657722655105 0 0 0
2360 643 2 0.5564 -0.9243314489692729 -8.633391770556205 6.635786459948034 0 1 0
888 152 2 0.5564 -11.507836476967611 -5.74850005763787 3.5083082101962906 0 0 0
1201 257 1 -1.1128 -0.02078949909880532 -1.106432886046318 6.21620168762849 0 0 0
1806 458 2 0.5564 -4.176199559778484 -11.801836834681783 1.5454913369880083 0 1 0
198 0 5 0 -6.196291638267839 -9.239548621198876 13.604443837309368 0 1 0
196 0 5 0 -4.169711299859664 -9.275923552347717 11.689954185073494 0 1 0
679 83 1 -1.1128 -3.649658714350257 -11.582061841944716 5.878688014476943 0 0 0
73 0 5 0 -8.185480818976204 -3.157287272167515 13.729607464858091 0 0 0
194 0 5 0 -10.146239942894324 -9.329902976224773 13.725454830364876 0 1 0
95 0 5 0 -6.183296056933447 -7.2202554108786545 15.66887282602083 0 0 0
1320 296 2 0.5564 -3.8019106750371923 -7.611686300074286 0.5960278712761317 0 1 0