LAMMPS data file via write_data, version 2 Aug 2023, timestep = 30000, units = real

3092 atoms
9 atom types
2094 bonds
7 bond types
1180 angles
8 angle types
210 dihedrals
4 dihedral types

-32.322935124334585 32.322935124334585 xlo xhi
-11.292157722819322 11.292157722819322 ylo yhi
-11.292157722819322 11.292157722819322 zlo zhi

Masses

1 15.9994
2 12.011
3 1.008
4 1.008
5 12.011
6 15.9994
7 15.9994
8 15.9994
9 1.008

Pair Coeffs # lj/cut/coul/long

1 0.2526 2.8492
2 0.0663 3.5812
3 0.0283 2.3734
4 0 0
5 0.245 2.8114
6 0.1195 3.1
7 0.1195 3.1
8 0.155 3.165
9 0 0

Bond Coeffs # harmonic

1 1109.29 1.12
2 399.792 1.43
3 299.844 1.52
4 400.034 1.53
5 310.707 1.41
6 179.254 0.971
7 1059.16 1.012

Angle Coeffs # harmonic

1 47.694 109.5
2 55.1271 109.5
3 47.635 109.6
4 55.1139 111
5 54.9931 110.3
6 180.46 109
7 30.1731 110
8 75.9 113.24

Dihedral Coeffs # harmonic

1 0.3011 1 3
2 1.4149 1 3
3 0.239 -1 3
4 0 1 1

Atoms # full

702 234 9 0.41 -30.53027832125208 -4.346071696996506 -2.948375965071783 0 0 0
701 234 9 0.41 -30.787811131482723 -5.657363393307693 -3.8653651527241397 0 0 0
40 14 8 -0.82 -30.75524781721377 -8.730387909442914 -5.9526059566189184 0 1 -1
2994 998 9 0.41 -30.735491439700475 -5.309258989514157 -5.761522158845866 1 1 0
42 14 9 0.41 -30.64886298119596 -7.728680120985113 -5.766270207503378 0 1 -1
700 234 8 -0.82 -31.20639431776072 -5.07610501096835 -3.136165310450206 0 0 0
41 14 9 0.41 -29.828255521652885 -9.14131892669303 -6.060727983662335 0 1 -1
479 160 9 0.41 -31.014299148966707 -4.347395781746935 -10.141343093136268 0 1 0
480 160 9 0.41 -31.436226891213366 -5.796417073690634 -10.790160207992068 0 1 0
185 62 9 0.41 -24.221307436085997 -7.984037941480926 -6.090546827085612 0 1 0
184 62 8 -0.82 -24.76228457194665 -7.199657689084415 -5.757484360756992 0 1 0
478 160 8 -0.82 -31.002999954459003 -4.898424284359438 -11.010303258232407 0 1 0
830 277 9 0.41 -27.788385101296434 -2.414709663178673 -1.159820289482619 0 0 0
1011 337 9 0.41 -26.74323605839878 -7.345522056169914 -1.448748638512031 0 1 -1
2424 808 9 0.41 -26.997453754167047 -5.508270579343432 -6.92325230314751 1 0 0
554 185 9 0.41 -31.34466496743899 -8.613772857194224 -4.219341445397096 0 0 0
186 62 9 0.41 -25.730417890322112 -7.502294225113172 -5.672777681536504 0 1 0
3019 1007 8 -0.82 -26.29631282220697 -8.959010371876895 -4.2520945250305235 1 1 0
553 185 8 -0.82 -31.714686877118428 -8.927440638393128 -3.3185856559396782 0 0 0
3021 1007 9 0.41 -25.28912059841422 -9.127979334648312 -4.142221313251982 1 1 0
3020 1007 9 0.41 -26.7606468302707 -9.545684460921837 -3.5605785762884405 1 1 0
1010 337 9 0.41 -26.21852552021339 -7.59530640747389 -3.003236692821348 0 1 -1
1009 337 8 -0.82 -26.10962884729401 -7.010310034353427 -2.177928664924483 0 1 -1
625 209 8 -0.82 -19.84311034172107 4.894737604467718 -0.20030269317212657 0 -1 0
764 255 9 0.41 -28.802732948824296 -7.845037635285376 -9.080721222403556 0 0 1
765 255 9 0.41 -29.976421007348907 -6.693417295099926 -9.335850562135487 0 0 1
763 255 8 -0.82 -28.974750598174772 -6.845233568135792 -9.193226352551877 0 0 1
3058 1020 8 -0.82 -24.89715540813776 -8.914487002102035 -8.601050800128759 1 0 0
2422 808 8 -0.82 -27.858871458300833 -6.055042537287229 -6.917968937932511 1 0 0
425 142 9 0.41 -30.309963681364835 -9.971364099385488 -2.6677895243369303 0 0 0
606 202 9 0.41 -27.97665174389165 -2.673169100384202 -8.507245087224051 0 0 1
1146 382 9 0.41 -27.63942417997802 -5.8034759214008576 -9.977514330768203 0 0 1
1145 382 9 0.41 -25.94693503011979 -5.3653585326650255 -9.928881881865138 0 0 1
1144 382 8 -0.82 -26.822912670009938 -5.394546838476647 -10.44451442820014 0 0 1
605 202 9 0.41 -27.978785361158437 -3.3589979958364893 -7.0236777800932835 0 0 1
612 204 9 0.41 -32.15127630710516 -0.13106488610489286 -6.947199365989525 0 0 0
2754 918 9 0.41 -27.980272057097935 -9.320182150679932 -7.411388705971261 1 1 0
761 254 9 0.41 -22.719940606550594 -10.03844975364656 -4.0583451465942755 0 0 -1
760 254 8 -0.82 -23.679133979563673 -9.819282020208316 -3.7821562001419453 0 0 -1
604 202 8 -0.82 -28.56491691438286 -2.8553198978577914 -7.680036497717216 0 0 1
762 254 9 0.41 -24.188522140794188 -10.68272369491172 -3.959856108979383 0 0 -1
3059 1020 9 0.41 -24.56115535102583 -8.73075016855005 -9.537993072297501 1 0 0
2752 918 8 -0.82 -27.685669596077368 -9.117214893357449 -8.375257073568443 1 1 0
426 142 9 0.41 -29.438450371878297 -10.991574730897597 -1.5927797514158968 0 0 0
2866 956 8 -0.82 -17.454843980835754 5.699981593092126 -7.685043378436535 1 0 0
166 56 8 -0.82 -20.394984201201233 -8.625272358171394 -0.2161001805343652 0 0 0
2899 967 8 -0.82 -23.61672909135889 -6.35694347712496 -3.22007999564989 1 0 0
2900 967 9 0.41 -24.164520110470935 -6.90168122844363 -2.55809827933874 1 0 0
1431 477 9 0.41 -23.184468254844695 -5.7777160241603465 -9.259089763621022 0 1 1
276 92 9 0.41 -29.796857337728643 -2.405122543328501 -3.241866270946737 0 0 -1
1430 477 9 0.41 -22.3316392022196 -6.311226695102022 -10.589898374295418 0 1 1
274 92 8 -0.82 -29.136022588909388 -3.10519165169503 -3.5608794924842027 0 0 -1
2901 967 9 0.41 -23.908023574541367 -6.469824937508477 -4.192279457559019 1 0 0
424 142 8 -0.82 -29.412329207542395 -10.1864271643177 -2.228281281638564 0 0 0
1297 433 8 -0.82 -32.01664817489022 1.493655232341636 -4.502438972303983 0 -1 0
2992 998 8 -0.82 -30.241397057248914 -6.1391781179278135 -5.4384456443571345 1 1 0
2993 998 9 0.41 -29.253404661675418 -6.043597354073479 -5.698809478182102 1 1 0
1120 374 8 -0.82 -17.030080000515213 -5.995139452448399 -9.027032938223918 0 0 1
1075 359 8 -0.82 -18.377639599980498 5.1021023219504436 -3.240663041976916 0 0 0
2423 808 9 0.41 -27.92928640004687 -6.551808099281681 -7.810675900775735 1 0 0
2496 832 9 0.41 -27.611645954455096 -9.239805616609456 -10.133887404172224 1 1 -1
2753 918 9 0.41 -26.69833818022511 -8.850010950388135 -8.36197352033679 1 1 0
2897 966 9 0.41 -26.496459675517414 5.921023726246425 -1.523997591825152 1 1 0
275 92 9 0.41 -28.148281201939188 -2.8674319913737314 -3.476824159549963 0 0 -1
3016 1006 8 -0.82 -21.953993735056535 0.4747365716686627 -9.444624595753107 1 0 1
2879 960 9 0.41 -32.08979173079941 10.23436091624421 -3.3780467321342744 1 -1 0
1310 437 9 0.41 -20.950318378035476 3.282620094327866 -2.544827874902367 0 -1 1
680 227 9 0.41 -20.204535946747704 5.127766367048668 -9.327438815726364 0 0 2
3060 1020 9 0.41 -24.619118208022737 -9.851391624797902 -8.315709704958746 1 0 0
3033 1011 9 0.41 -22.06865875742546 -7.188240043982596 -3.154820884280431 1 0 0
3032 1011 9 0.41 -20.780244972862327 -6.481538727996987 -3.9367309408474576 1 0 0
3031 1011 8 -0.82 -21.13859688119114 -7.35278690107355 -3.533317636297035 1 0 0
254 85 9 0.41 -23.342132817974807 0.670712717653732 -0.7361523369932552 0 0 0
90 30 9 0.41 -18.460059256755887 -8.067955449851441 -5.3253236247506806 0 0 0
331 111 8 -0.82 -17.575373053614946 -3.9383626470285797 -6.616975315794443 0 1 0
1390 464 8 -0.82 -23.795328077252652 -3.003039521850953 -10.13262392091036 0 0 1
678 226 9 0.41 -32.23508026650783 -6.022039451839567 -2.377904915550605 0 0 0
2878 960 8 -0.82 -31.65545157122989 9.38286976855468 -3.755195019590408 1 -1 0
1429 477 8 -0.82 -22.426474434174597 -5.550775032871575 -9.912973225400982 0 1 1
1311 437 9 0.41 -19.987996876848634 3.092761722054405 -1.265818416288253 0 -1 1
2731 911 8 -0.82 -25.46731095637557 -4.490771589334129 -1.7364023157331143 1 1 1
1121 374 9 0.41 -17.66721678004552 -5.883599414898848 -9.80824087474705 0 0 1
89 30 9 0.41 -20.009687018788398 -8.38888721330373 -4.68929829101573 0 0 0
536 179 9 0.41 -19.9933237773973 -9.48893806143105 -6.8843763555218285 0 1 1
1332 444 9 0.41 -19.394861060567628 -9.315128517958279 -1.6923241636095483 0 0 0
1330 444 8 -0.82 -19.134864827281735 -9.892758361831318 -2.496586971689222 0 0 0
1340 447 9 0.41 -16.802309913906107 11.11482218566982 -3.3872782765505463 0 0 1
537 179 9 0.41 -19.38337601514829 -11.113142161445698 -6.995715137817404 0 1 1
2880 960 9 0.41 -31.69333548552649 8.624421873064634 -3.0758028429816022 1 -1 0
88 30 8 -0.82 -19.102887312061775 -8.77277049120298 -4.959762022315723 0 0 0
535 179 8 -0.82 -20.178396153694237 -10.485568552000991 -6.980177488250542 0 1 1
528 176 9 0.41 -31.38475400036978 0.0402179713635995 -4.051052001386349 0 0 0
1391 464 9 0.41 -23.6108501107147 -3.995274832745329 -10.262544100256935 0 0 1
1331 444 9 0.41 -19.19002294512476 -9.290889898147299 -3.32037304472071 0 0 0
45 15 9 0.41 -16.178869480324344 -0.09110512885613531 -4.860198048842655 0 1 0
1339 447 8 -0.82 -17.07158880385942 -10.880715374637315 -4.164568765707756 0 1 1
500 167 9 0.41 -17.21005487034256 10.298899912641499 -9.124632330683692 0 0 1
85 29 8 -0.82 -23.17448138661572 -9.191145002632494 -1.1695985935832471 0 0 0
499 167 8 -0.82 -17.726352457194807 11.084535465284446 -8.727106456105993 0 0 1
501 167 9 0.41 -17.845386507124957 10.901137156703143 -7.726681483265741 0 0 1
413 138 9 0.41 -16.65889503225724 -7.027205278356492 -1.3434561657988269 0 0 0
3017 1006 9 0.41 -21.436143768213313 0.15507271088925378 -8.641606342466142 1 0 1
549 183 9 0.41 -20.235389816844695 4.457879327706186 -11.176249780467778 0 0 1
154 52 8 -0.82 -21.02135303243493 11.289321412846189 -4.260367237919223 0 0 -1
491 164 9 0.41 -21.52224488520642 -4.248547527775817 -1.6748220674105738 0 0 1
490 164 8 -0.82 -21.82796307296751 -4.1671188052130566 -2.6412074291212395 0 0 1
492 164 9 0.41 -22.559935124653745 -4.812028610970352 -2.93707855789426 0 0 1
770 257 9 0.41 -16.238666781099482 -4.014561983950058 -1.5550182057318338 0 0 0
898 300 8 -0.82 -20.42601638973189 8.03473071241865 -7.7192213821325355 0 0 -1
575 192 9 0.41 -18.688023784340942 -5.764230289198631 -4.389270730022265 0 0 0
61 21 8 -0.82 -20.165881980120435 -1.049083407676429 -2.987289805887956 0 0 0
2494 832 8 -0.82 -27.35524862626126 -9.719426252970177 -10.998368630596074 1 1 -1
332 111 9 0.41 -18.394015280186046 -4.075313563831379 -6.029494159487584 0 1 0
86 29 9 0.41 -23.3027100081336 -9.122012133531396 -2.178369714547184 0 0 0
156 52 9 0.41 -20.609187007856086 -11.186755025879389 -5.181829175852302 0 1 -1
412 138 8 -0.82 -16.446811953750945 -7.402726993698322 -2.2593152383893997 0 0 0
1299 433 9 0.41 -31.645817728414336 2.277168814633832 -5.048595575547495 0 -1 0
717 239 9 0.41 -26.985191701582597 4.414800611809593 -10.970956630848445 0 -1 1
233 78 9 0.41 -16.27506864077999 -7.690625471414537 -6.1039709201181545 0 0 0
899 300 9 0.41 -20.351076053518135 7.03814400521367 -7.976224358296944 0 0 -1
1251 417 9 0.41 -23.701321832139392 6.299773063205741 -1.0034068448779525 0 0 0
2732 911 9 0.41 -25.165952300296297 -5.437666671277985 -1.961814550664041 1 1 1
925 309 8 -0.82 -22.937196617498824 10.6975898394649 -1.5106491196583764 0 0 0
571 191 8 -0.82 -29.34001105287093 5.988624287974066 -10.301056188519011 0 0 1
1285 429 8 -0.82 -18.460705844381422 -0.33529677458171037 -8.359720019476692 0 0 1
344 115 9 0.41 -25.190010946216884 11.15124081104068 -1.3473887116710905 0 0 -1
234 78 9 0.41 -17.156906972010525 -6.663089543373264 -7.079986896671048 0 0 0
2583 861 9 0.41 -30.231760201559645 -3.305493993487893 -8.429302168942328 1 0 0
527 176 9 0.41 -32.01689196371157 -1.4914330171006362 -3.682915802543711 0 0 0
1096 366 8 -0.82 -17.140473108084617 8.236903496767418 -8.731871850714827 0 0 1
2919 973 9 0.41 -22.298267137566974 4.909348853742063 -2.2798853037424713 1 0 -1
539 180 9 0.41 -29.908880256137873 -2.5066619226405287 -0.5187314491338935 0 0 0
2742 914 9 0.41 -30.197777186107416 -2.3149069839574263 -6.458929129721207 1 1 0
2740 914 8 -0.82 -30.862599247782892 -1.5490040919490475 -6.334296926820643 1 1 0
151 51 8 -0.82 -18.316832249770258 7.203115626250586 -5.448849600873548 0 -1 0
2741 914 9 0.41 -30.799421086663333 -0.9955356516963398 -5.486503229137487 1 1 0
2339 780 9 0.41 -26.081006401174598 -2.20871980835145 -3.15353170665826 1 0 0
3036 1012 9 0.41 -27.946284037844794 1.6123260009441314 -9.308271192348153 1 1 1
927 309 9 0.41 -22.147275942685262 10.307715733157618 -1.0019397186968142 0 0 0
232 78 8 -0.82 -17.10747832907299 -7.107672816827566 -6.163249838766933 0 0 0
538 180 8 -0.82 -30.755610541611038 -2.153675706777557 -0.9768547256012319 0 0 0
674 225 9 0.41 -30.085395107230333 0.5147004268435271 -7.701481633984185 0 0 0
618 206 9 0.41 -27.424298161699515 4.819867939071337 -7.63111124840139 0 0 1
496 166 8 -0.82 -25.851718142088366 -3.846367560055425 -6.984194247137119 0 0 1
498 166 9 0.41 -26.023685742624362 -3.507911000878523 -6.039655584221242 0 0 1
497 166 9 0.41 -25.298647641036336 -3.16783909027896 -7.5061028875635945 0 0 1
540 180 9 0.41 -30.62612075166003 -1.6174336548303163 -1.834201691290609 0 0 0
3035 1012 9 0.41 -26.408301920829885 1.4466320746549624 -9.960598763580286 1 1 1
211 71 8 -0.82 -23.596748581332925 5.831108365240283 -10.257279893687178 0 0 0
675 225 9 0.41 -28.87568589547397 -0.3792279033208281 -8.475416953018836 0 0 0
949 317 8 -0.82 -28.416321410003842 0.6627961324436171 -2.6424948069587852 0 0 0
950 317 9 0.41 -28.16831346014507 1.2419260992424679 -1.83340546661978 0 0 0
526 176 8 -0.82 -31.20363376491223 -0.8716035288416677 -3.61996853370278 0 0 0
951 317 9 0.41 -29.34678182690959 0.9187742227561362 -2.9546491476287553 0 0 0
1200 400 9 0.41 -25.981524053194697 1.066939799630811 -7.897842018308262 0 -1 0
1199 400 9 0.41 -27.336316833416895 0.2281015052749069 -7.3347708293226646 0 -1 0
1198 400 8 -0.82 -26.327731080149775 0.2626143710563156 -7.389193107130531 0 -1 0
673 225 8 -0.82 -29.150338125372052 0.5295927304024097 -8.10001020065399 0 0 0
3034 1012 8 -0.82 -27.16352115120712 2.098644017064016 -9.754475723811499 1 1 1
616 206 8 -0.82 -27.965721702750564 4.4917570229973105 -8.42556114563886 0 0 1
617 206 9 0.41 -27.454767996638935 3.8636154292577807 -9.043896663215236 0 0 1
2420 807 9 0.41 -26.10008629520627 -1.1930102421966637 -0.5264270047448942 1 0 0
267 89 9 0.41 -31.041725778406906 6.497284257043884 -5.115976282682925 0 0 0
1273 425 8 -0.82 -23.475567967390973 -10.342915879269423 -10.847278873209818 0 1 0
183 61 9 0.41 -28.510150300925055 -9.082998151336982 -1.2407468029227005 0 0 -1
2419 807 8 -0.82 -26.150432099175745 -1.1169479680475014 -1.5417276214715674 1 0 0
464 155 9 0.41 -25.775426792927632 -2.5456773043589926 -9.616642801273562 0 1 1
655 219 8 -0.82 -30.912581967553134 2.4001417352597105 -0.8781245715618784 0 0 0
512 171 9 0.41 -24.75459677135239 -6.834968695221245 -8.088900702447178 0 0 1
2338 780 8 -0.82 -26.322161771865872 -2.9553667591488377 -3.8054880071410926 1 0 0
511 171 8 -0.82 -24.642011737682786 -5.888688286703409 -8.45786894610032 0 0 1
513 171 9 0.41 -25.037167129971134 -5.182010582340774 -7.822703005216745 0 0 1
1077 359 9 0.41 -17.86774997559335 4.4277222785680355 -3.8068902348470317 0 0 0
189 63 9 0.41 -30.135767497355975 3.6291152686476984 -6.501666732018907 0 1 0
465 155 9 0.41 -26.852300213813226 -1.390288243129847 -10.126087981976184 0 1 1
310 104 8 -0.82 -26.14725576584765 5.726484486015853 -5.591293285917154 0 0 0
463 155 8 -0.82 -26.732445950377627 -2.2097744506079326 -9.525789446531798 0 1 1
1287 429 9 0.41 -17.699817460364645 0.14203723069036123 -8.84619413014041 0 0 1
2733 911 9 0.41 -24.785090237847946 -3.7445248983407495 -1.850173844655659 1 1 1
573 191 9 0.41 -28.82731900430393 5.300517226325752 -9.744515311395524 0 0 1
1286 429 9 0.41 -18.81674094073214 0.26375521171134864 -7.623065559292177 0 0 1
837 279 9 0.41 -19.11607611307079 6.77612391893954 -11.109348421662897 0 0 0
1122 374 9 0.41 -16.92513199253305 -5.16490928618828 -8.456690122648519 0 0 1
1371 457 9 0.41 -16.615232661913005 0.05471696984558072 -0.7920895291219328 0 0 0
469 157 8 -0.82 -31.26006580518427 -9.690652897666007 -9.914477619593049 0 0 0
1392 464 9 0.41 -23.429743588887096 -2.5502021493636295 -9.292469539503777 0 0 1
1076 359 9 0.41 -18.9602477646184 4.542571850083704 -2.6129960428234273 0 0 0
333 111 9 0.41 -16.715285248790927 -4.276977193755052 -6.187560573225264 0 1 0
80 27 9 0.41 -21.505690846028873 2.888818000723525 -7.0350825182931045 0 1 0
693 231 9 0.41 -21.504858284919344 0.32565452852645294 -2.1655351544571353 0 -1 0
63 21 9 0.41 -20.48110393528406 -0.9198504691984759 -3.9511520893709315 0 0 0
587 196 9 0.41 -32.06376707954511 7.683241558949227 -6.256721300435994 0 -1 0
707 236 9 0.41 -21.937308197506294 -2.2440329018855216 -7.660453281269909 0 0 0
57 19 9 0.41 -25.120430869882046 -0.5249717949142383 -6.370118425744382 0 0 -1
708 236 9 0.41 -23.37981042884092 -1.557431219978188 -7.0606878390378185 0 0 0
706 236 8 -0.82 -22.859237036737937 -1.8541483914935668 -7.894161895764829 0 0 0
691 231 8 -0.82 -22.268227570791264 0.986578483667909 -2.2011322357008947 0 -1 0
1341 447 9 0.41 -17.75475653889429 -10.19021501080221 -3.863681407190752 0 1 1
76 26 8 -0.82 -18.269209544769737 -2.8812645634416256 -8.929879713209827 0 0 0
77 26 9 0.41 -18.312421644799528 -1.869527247379775 -8.773703468845415 0 0 0
956 319 9 0.41 -18.274315739691538 -11.00426731934715 -10.303036245760698 0 0 1
55 19 8 -0.82 -24.257674474188548 -0.8068594213293228 -5.8984527936636635 0 0 -1
1111 371 8 -0.82 -20.115906805698437 -5.817669929687439 -7.593861508219671 0 0 1
1113 371 9 0.41 -20.03674899936424 -6.164314182823462 -6.643916400596024 0 0 1
1112 371 9 0.41 -20.879925275797618 -6.2274199017070035 -8.134889087157426 0 0 1
692 231 9 0.41 -22.02360649444491 1.969784500749176 -2.102071771270909 0 -1 0
56 19 9 0.41 -24.350584339035223 -0.6812433846282868 -4.895505037067906 0 0 -1
2750 917 9 0.41 -18.853169371173685 0.16679678686773158 -2.645621969132982 1 0 0
2749 917 8 -0.82 -18.26516073373577 0.9922447227147089 -2.556518281159505 1 0 0
81 27 9 0.41 -21.14720574351811 1.4941734214957698 -6.176891596731085 0 1 0
2340 780 9 0.41 -26.215729640945604 -3.87271778517556 -3.370864109180297 1 0 0
508 170 8 -0.82 -20.509012530615372 -3.0966457298465535 -7.38301022313343 0 0 0
509 170 9 0.41 -19.75252705221053 -2.995192529221157 -8.068630952402724 0 0 0
576 192 9 0.41 -19.812074553376135 -4.557312731899921 -4.0987313499643 0 0 0
1372 458 8 -0.82 -21.15646608464376 -0.10731625934131372 -5.5765843820695995 0 0 0
1373 458 9 0.41 -22.161014381768172 -0.12353952739522 -5.753034018249434 0 0 0
1374 458 9 0.41 -20.638707979111963 -0.3205668169783227 -6.42354627652448 0 0 0
574 192 8 -0.82 -19.637722685243517 -5.4414498189044975 -4.575613882854274 0 0 0
78 26 9 0.41 -18.031260459106264 -3.4396066409339365 -8.105739088823967 0 0 0
471 157 9 0.41 -30.51276263355715 -10.266792112953015 -9.539170384297414 0 0 0
510 170 9 0.41 -20.64951897521623 -4.0425194018048645 -7.024381340523439 0 0 0
2751 917 9 0.41 -18.848173913735337 1.821000398831469 -2.4097879927281323 1 0 0
1454 485 9 0.41 -17.74288090392458 0.6809877241429216 -11.063426786323008 0 0 1
1309 437 8 -0.82 -19.98280585329556 3.1013263765053534 -2.2851190261239562 0 -1 1
919 307 8 -0.82 -17.20601352860639 3.6050308271410785 -5.282820131788046 0 -1 1
560 187 9 0.41 -19.5121095781967 -3.936494702496759 -9.911353087407855 0 -1 1
920 307 9 0.41 -17.22066354410052 2.672528473652706 -4.861767560904535 0 -1 1
629 210 9 0.41 -25.434079143923263 2.7244406131752417 -1.7496048919642568 0 -1 0
293 98 9 0.41 -17.022975213772845 -8.301776815293547 -10.776902225118492 0 0 0
289 97 8 -0.82 -28.145725911286423 2.1090585216791755 -0.5494400039213776 0 -1 -1
1813 605 8 -0.82 -16.313506756877707 4.9954764660041135 -0.6316333282762727 0 0 0
715 239 8 -0.82 -26.4188032362186 5.222375955571746 -10.72383708610542 0 -1 1
1197 399 9 0.41 -16.93831862636211 1.963799663548155 -8.7708716910898 0 -1 1
3018 1006 9 0.41 -22.67157139266409 -0.19690468394960092 -9.690895743904324 1 0 1
167 56 9 0.41 -21.305046845519975 -8.741075450271275 -0.6662456761483835 0 0 0
43 15 8 -0.82 -16.453151066614424 0.8408135660473217 -4.566338090831655 0 1 0
212 71 9 0.41 -22.848292055724478 5.145167614315 -10.170181359342692 0 0 0
577 193 8 -0.82 -32.23943762522202 6.850423061891693 -0.12375922831320807 0 0 0
79 27 8 -0.82 -20.83051011634062 2.130098768350008 -6.909248383128841 0 1 0
44 15 9 0.41 -17.021550808072863 0.8601245424540611 -3.708829983485753 0 1 0
2581 861 8 -0.82 -31.115457443231307 -3.4712889677487127 -8.91254413538974 1 0 0
472 158 8 -0.82 -23.042671638013196 9.615531265297975 -4.079638834838924 0 0 1
681 227 9 0.41 -21.110038633158123 5.117189828410428 -7.875318918016562 0 0 2
579 193 9 0.41 -31.414650542604303 6.270611354692409 -0.3008357015084684 0 0 0
1195 399 8 -0.82 -16.218941485791152 1.5492248084985896 -9.366975845729172 0 -1 1
2578 860 8 -0.82 -28.3315457904698 -9.942423120462488 -6.096480186416819 1 1 0
608 203 9 0.41 -30.93677374913681 10.413887821557157 -0.28707597785748895 0 1 0
2579 860 9 0.41 -28.89593045728995 -10.794484351795981 -6.0960133111473 1 1 0
2580 860 9 0.41 -27.373709745579525 -10.076061474774102 -5.789938562517245 1 1 0
198 66 9 0.41 -30.885711467567937 10.422982783853055 -5.459059816295015 0 0 0
172 58 8 -0.82 -16.763075884952297 -5.388661933725073 -4.0246099731292215 0 0 0
572 191 9 0.41 -30.214822172928937 5.669077930302972 -10.712250054749092 0 0 1
51 17 9 0.41 -29.81311683847801 3.4885076037922715 -3.959991046575504 0 0 0
50 17 9 0.41 -30.013720322863932 4.524767641128513 -2.6236226506972713 0 0 0
49 17 8 -0.82 -29.613816520585978 3.6557918020397207 -2.973026906564046 0 0 0
2877 959 9 0.41 -29.729138251219506 6.238293047967652 -1.5005618666486242 1 0 -1
679 227 8 -0.82 -20.191373150379768 5.233019013154692 -8.311338453455424 0 0 2
493 165 8 -0.82 -27.779135868890975 8.22440955631954 -9.930495713759687 0 0 1
196 66 8 -0.82 -30.19970845875325 10.39411334762033 -6.218132018236993 0 0 0
627 209 9 0.41 -20.185192617694472 5.851772277977947 -0.13020957083982232 0 -1 0
153 51 9 0.41 -18.439094455515296 6.666629610911514 -4.583029559187066 0 -1 0
188 63 9 0.41 -31.160257048165526 4.447143772578222 -5.285587680752031 0 1 0
187 63 8 -0.82 -30.86933324076601 3.617952562334704 -5.7924666634100825 0 1 0
1148 383 9 0.41 -29.12232314231572 9.025094193237692 -5.632762303622522 0 1 0
1147 383 8 -0.82 -28.697538715707086 8.111721153778301 -5.46267536379588 0 1 0
1149 383 9 0.41 -29.15367799519255 7.623612394827081 -4.69153510485141 0 1 0
135 45 9 0.41 -27.524810023598114 5.975496661400047 -3.1612084629747965 0 1 0
134 45 9 0.41 -28.06084524008874 4.476236363423942 -2.77164918763974 0 1 0
133 45 8 -0.82 -27.272399157721807 5.122175228821394 -2.682870269420963 0 1 0
160 54 8 -0.82 -22.580982345430925 4.5481400924670154 -7.2476046069053375 0 0 0
161 54 9 0.41 -22.554476636480118 4.8338964889778815 -6.2627136419562355 0 0 0
544 182 8 -0.82 -26.484234309014607 8.32026429363183 -2.9650693890713775 0 1 0
2981 994 9 0.41 -26.48484742340289 7.04843875535288 -6.9923009330867725 1 -1 0
545 182 9 0.41 -26.22957278731086 9.312186947434736 -2.9183074674045937 0 1 0
698 233 9 0.41 -29.53608744681305 8.817576242565298 -2.3458199762179035 0 0 0
2980 994 8 -0.82 -27.008228543422835 7.762010720394965 -7.497242978064931 1 -1 0
697 233 8 -0.82 -29.18531766557623 7.866092973125834 -2.2672974639194 0 0 0
311 104 9 0.41 -25.691944308485787 5.038341614415497 -4.999992882867967 0 0 0
2896 966 8 -0.82 -25.767165646588854 6.396417889453144 -0.9917154172541593 1 1 0
312 104 9 0.41 -26.265364651065457 6.651904840541224 -5.175947712603278 0 0 0
2982 994 9 0.41 -27.820874372844493 7.988042505631352 -6.9246297963474746 1 -1 0
197 66 9 0.41 -30.85335444623184 10.483613724425233 -6.986598987296761 0 0 0
546 182 9 0.41 -25.743072099916127 7.779570383955818 -2.527469639771743 0 1 0
62 21 9 0.41 -20.403255290030113 -1.9552372052673253 -2.593649965571304 0 0 0
699 233 9 0.41 -28.27149951311011 7.813673487230265 -2.7227636209250203 0 0 0
2990 997 9 0.41 -30.720461991076384 8.503562096197818 -11.017743677149134 1 0 0
14 5 9 0.41 -32.11242734283124 -9.623080811155287 -6.934888746010447 0 1 0
1275 425 9 0.41 -23.78792113114814 -11.056244023988965 -10.184337097515858 0 1 0
494 165 9 0.41 -28.37507209157641 7.406432735388634 -10.060215069642135 0 0 1
1814 605 9 0.41 -16.931145007622785 5.478248827048919 -1.2799788840270931 0 0 0
2582 861 9 0.41 -31.876516422968546 -3.062462995441397 -8.370719807738132 1 0 0
265 89 8 -0.82 -30.779542507228822 6.147616354125834 -4.19615327988643 0 0 0
345 115 9 0.41 -26.759195977067197 10.705584262713035 -1.0786054403906533 0 0 -1
343 115 8 -0.82 -26.071796386981156 10.93781017363101 -1.7948320983842603 0 0 -1
607 203 8 -0.82 -29.93198790873187 10.405852372839725 -0.49254017013960016 0 1 0
495 165 9 0.41 -27.232367428260872 7.9913274134281345 -9.10084039114524 0 0 1
1407 469 9 0.41 -24.771417712908544 9.796889444778373 -5.283285953283919 0 0 1
1406 469 9 0.41 -26.099556447291583 9.843903751734853 -6.271186323104782 0 0 1
1405 469 8 -0.82 -25.283881190110364 10.355672932839035 -5.960232177211252 0 0 1
716 239 9 0.41 -26.967896204313888 6.066428860856931 -10.644270798690577 0 -1 1
2875 959 8 -0.82 -30.181453596876096 5.487135467397103 -0.9763310290123446 1 0 -1
638 213 9 0.41 -19.31249299990194 9.149718654846644 -10.804576255457212 0 1 1
126 42 9 0.41 -23.27733246607434 8.156245872967315 -4.856025782494976 0 0 0
2803 935 8 -0.82 -17.825710976692672 8.921198589210622 -0.41543727254855334 1 0 1
656 219 9 0.41 -30.24407152759193 2.6762067426638954 -1.6038980673303342 0 0 0
266 89 9 0.41 -31.427555230122657 6.460445641958856 -3.4645955386846925 0 0 0
1916 639 9 0.41 -19.63578802776989 -11.168800337008427 -1.4750616852497327 0 0 0
1915 639 8 -0.82 -19.958085312751386 10.706188924505174 -0.8190032910842735 0 -1 0
652 218 8 -0.82 -23.6540699389467 10.84753300640184 -8.695599188663245 0 -1 0
654 218 9 0.41 -24.074180201607458 10.81642577421292 -7.767790828019988 0 -1 0
653 218 9 0.41 -22.718509861274043 10.452701721337146 -8.761850639888136 0 -1 0
460 154 8 -0.82 -18.2172697914487 2.437063541464905 -7.530846483486389 0 0 1
213 71 9 0.41 -24.51212212998677 5.432153721215698 -10.477785711599818 0 0 0
87 29 9 0.41 -23.46073024509044 -8.337666940133111 -0.6960386004164061 0 0 0
2421 807 9 0.41 -26.86910323001197 -0.437780797317437 -1.8057753475614255 1 0 0
1249 417 8 -0.82 -22.73365500737153 6.351853509932251 -1.3111096701361138 0 0 0
108 36 9 0.41 -27.352184162039503 9.672952814751579 -10.913813843069677 0 0 0
152 51 9 0.41 -17.968300544100302 6.673189357238893 -6.2544951261061135 0 -1 0
1250 417 9 0.41 -22.687938533235133 7.267090752627279 -1.7349762251337992 0 0 0
270 90 9 0.41 -20.730339973701632 4.9740766712629245 -5.130923534085476 0 -1 0
268 90 8 -0.82 -21.6715032508979 5.299383948839097 -4.946537286033394 0 -1 0
269 90 9 0.41 -22.01159314341325 4.936429747156435 -4.059642951588198 0 -1 0
921 307 9 0.41 -16.274775456828706 3.965322883839594 -5.097057556691529 0 -1 1
547 183 8 -0.82 -21.09044576677342 4.009210292299299 -10.857853795044594 0 0 1
2917 973 8 -0.82 -22.473800430867676 4.004893890407862 -2.7215332451246788 1 0 -1
630 210 9 0.41 -25.92344477079473 3.9522737045126632 -2.688459010011334 0 -1 0
414 138 9 0.41 -16.381189526485556 -8.426378231217901 -2.2546727558511375 0 0 0
628 210 8 -0.82 -25.119064736906413 3.3594458626849395 -2.4672911860830027 0 -1 0
124 42 8 -0.82 -23.244356648417053 7.306000359733218 -5.424762126895981 0 0 0
462 154 9 0.41 -19.24404522924783 2.439418702914006 -7.438222043704684 0 0 1
926 309 9 0.41 -22.904316945482428 -10.857600603469258 -1.4791751218722258 0 1 0
507 169 9 0.41 -28.241204766471533 2.4093609829656444 -11.24726394549621 0 0 1
620 207 9 0.41 -22.775346649827966 7.169845664124143 -9.857800912680124 0 0 0
637 213 8 -0.82 -19.443335211453025 8.172828394176712 -10.559363345736246 0 1 1
474 158 9 0.41 -22.2218243669926 10.130237892378457 -4.407796752030509 0 0 1
162 54 9 0.41 -23.35657484683658 5.049414531051877 -7.674638999024244 0 0 0
473 158 9 0.41 -23.15081862799458 9.697477562729059 -3.0670682081496974 0 0 1
125 42 9 0.41 -22.331827583057 6.863898304110862 -5.324947854984332 0 0 0
155 52 9 0.41 -20.2852620137739 -10.987766874983333 -3.6295066805767213 0 1 -1
900 300 9 0.41 -19.572565636939405 8.402738535035574 -7.302626403328465 0 0 -1
1098 366 9 0.41 -17.89949994278073 8.060568562763862 -9.390589947833973 0 0 1
1917 639 9 0.41 -19.16830513986782 10.077616992810189 -0.6130982372373488 0 -1 0
173 58 9 0.41 -16.90763737340734 -6.000778088968329 -4.828627480378912 0 0 0
946 316 8 -0.82 -17.616156233249328 10.138854987488543 -6.166574374683656 0 -1 0
947 316 9 0.41 -17.910414159071994 9.354487804069311 -5.589472576634656 0 -1 0
948 316 9 0.41 -17.11081695014474 10.74846360206448 -5.5101924546321035 0 -1 0
2804 935 9 0.41 -17.544869180735553 8.401598572321557 -1.244389453291543 1 0 1
2867 956 9 0.41 -18.20094563163005 5.089855416819695 -8.015792831971288 1 0 0
461 154 9 0.41 -17.853393675946773 2.991041994252445 -6.757874513686523 0 0 1
639 213 9 0.41 -20.223063644691756 8.072501649564533 -9.915940810815432 0 1 1
2918 973 9 0.41 -23.45436738454644 3.767697439143612 -2.561864737105484 1 0 -1
619 207 8 -0.82 -22.395693124531974 8.112270093070972 -9.726477991147709 0 0 0
470 157 9 0.41 -31.73065165688191 -10.081703928648395 -10.72914825106597 0 0 0
621 207 9 0.41 -21.869290656373963 8.196570651987841 -8.85817189421473 0 0 0
2868 956 9 0.41 -16.679793356169483 5.113453691129777 -7.378631746846759 1 0 0
1097 366 9 0.41 -17.17796660489369 7.533218105360106 -7.991752139567834 0 0 1
561 187 9 0.41 -21.081840913218763 -4.182627674980465 -10.392723746550617 0 -1 1
559 187 8 -0.82 -20.11244232347149 -4.151348869923339 -10.70311326007891 0 -1 1
174 58 9 0.41 -16.409335292792782 -5.9396256078488054 -3.233786603065276 0 0 0
290 97 9 0.41 -29.000759877400967 2.583650211784308 -0.2637928722336387 0 -1 -1
181 61 8 -0.82 -27.75335340058917 -8.530642757845024 -0.8409555814332919 0 0 -1
3135 1045 9 0.41 -21.717182516851615 -10.95341453603704 -10.968412563542431 1 1 0
548 183 9 0.41 -21.126140186537004 3.043933528589603 -11.219991893151864 0 0 1
2876 959 9 0.41 -29.60815366596146 5.233877286302022 -0.16535017605897373 1 0 -1
2452 818 8 -0.82 -31.43600023349257 -8.858087941055478 -0.022647697349141183 1 2 -1
420 140 9 0.41 -31.984191323727075 -7.985916478165187 -9.727008016415619 0 1 1