# LAMMPS data file 

490 atoms
80 bonds
130 angles
120 dihedrals

7 atom types
5 bond types
6 angle types
3 dihedral types

-14.2 14.2 xlo xhi
-14.2 14.2 ylo yhi
-25.68 25.68 zlo zhi

Atoms

1 1 1 1.0 -12.78 -12.78 21.419999999999995 
2 1 2 -1.0 -12.78 -9.94 21.419999999999995 
3 1 2 -1.0 -9.94 -12.78 21.419999999999995 
4 1 1 1.0 -9.94 -9.94 21.419999999999995 
5 1 2 -1.0 -12.78 -12.78 24.259999999999994 
6 1 1 1.0 -12.78 -9.94 24.259999999999994 
7 1 1 1.0 -9.94 -12.78 24.259999999999994 
8 1 2 -1.0 -9.94 -9.94 24.259999999999994 
9 1 1 1.0 -12.78 -12.78 27.099999999999994 
10 1 2 -1.0 -12.78 -9.94 27.099999999999994 
11 1 2 -1.0 -9.94 -12.78 27.099999999999994 
12 1 1 1.0 -9.94 -9.94 27.099999999999994 
13 1 2 -1.0 -12.78 -12.78 29.939999999999994 
14 1 1 1.0 -12.78 -9.94 29.939999999999994 
15 1 1 1.0 -9.94 -12.78 29.939999999999994 
16 1 2 -1.0 -9.94 -9.94 29.939999999999994 
17 1 1 1.0 -12.78 -7.1 21.419999999999995 
18 1 2 -1.0 -12.78 -4.26 21.419999999999995 
19 1 2 -1.0 -9.94 -7.1 21.419999999999995 
20 1 1 1.0 -9.94 -4.26 21.419999999999995 
21 1 2 -1.0 -12.78 -7.1 24.259999999999994 
22 1 1 1.0 -12.78 -4.26 24.259999999999994 
23 1 1 1.0 -9.94 -7.1 24.259999999999994 
24 1 2 -1.0 -9.94 -4.26 24.259999999999994 
25 1 1 1.0 -12.78 -7.1 27.099999999999994 
26 1 2 -1.0 -12.78 -4.26 27.099999999999994 
27 1 2 -1.0 -9.94 -7.1 27.099999999999994 
28 1 1 1.0 -9.94 -4.26 27.099999999999994 
29 1 2 -1.0 -12.78 -7.1 29.939999999999994 
30 1 1 1.0 -12.78 -4.26 29.939999999999994 
31 1 1 1.0 -9.94 -7.1 29.939999999999994 
32 1 2 -1.0 -9.94 -4.26 29.939999999999994 
33 1 1 1.0 -12.78 -1.42 21.419999999999995 
34 1 2 -1.0 -12.78 1.42 21.419999999999995 
35 1 2 -1.0 -9.94 -1.42 21.419999999999995 
36 1 1 1.0 -9.94 1.42 21.419999999999995 
37 1 2 -1.0 -12.78 -1.42 24.259999999999994 
38 1 1 1.0 -12.78 1.42 24.259999999999994 
39 1 1 1.0 -9.94 -1.42 24.259999999999994 
40 1 2 -1.0 -9.94 1.42 24.259999999999994 
41 1 1 1.0 -12.78 -1.42 27.099999999999994 
42 1 2 -1.0 -12.78 1.42 27.099999999999994 
43 1 2 -1.0 -9.94 -1.42 27.099999999999994 
44 1 1 1.0 -9.94 1.42 27.099999999999994 
45 1 2 -1.0 -12.78 -1.42 29.939999999999994 
46 1 1 1.0 -12.78 1.42 29.939999999999994 
47 1 1 1.0 -9.94 -1.42 29.939999999999994 
48 1 2 -1.0 -9.94 1.42 29.939999999999994 
49 1 1 1.0 -12.78 4.26 21.419999999999995 
50 1 2 -1.0 -12.78 7.1 21.419999999999995 
51 1 2 -1.0 -9.94 4.26 21.419999999999995 
52 1 1 1.0 -9.94 7.1 21.419999999999995 
53 1 2 -1.0 -12.78 4.26 24.259999999999994 
54 1 1 1.0 -12.78 7.1 24.259999999999994 
55 1 1 1.0 -9.94 4.26 24.259999999999994 
56 1 2 -1.0 -9.94 7.1 24.259999999999994 
57 1 1 1.0 -12.78 4.26 27.099999999999994 
58 1 2 -1.0 -12.78 7.1 27.099999999999994 
59 1 2 -1.0 -9.94 4.26 27.099999999999994 
60 1 1 1.0 -9.94 7.1 27.099999999999994 
61 1 2 -1.0 -12.78 4.26 29.939999999999994 
62 1 1 1.0 -12.78 7.1 29.939999999999994 
63 1 1 1.0 -9.94 4.26 29.939999999999994 
64 1 2 -1.0 -9.94 7.1 29.939999999999994 
65 1 1 1.0 -12.78 9.94 21.419999999999995 
66 1 2 -1.0 -12.78 12.78 21.419999999999995 
67 1 2 -1.0 -9.94 9.94 21.419999999999995 
68 1 1 1.0 -9.94 12.78 21.419999999999995 
69 1 2 -1.0 -12.78 9.94 24.259999999999994 
70 1 1 1.0 -12.78 12.78 24.259999999999994 
71 1 1 1.0 -9.94 9.94 24.259999999999994 
72 1 2 -1.0 -9.94 12.78 24.259999999999994 
73 1 1 1.0 -12.78 9.94 27.099999999999994 
74 1 2 -1.0 -12.78 12.78 27.099999999999994 
75 1 2 -1.0 -9.94 9.94 27.099999999999994 
76 1 1 1.0 -9.94 12.78 27.099999999999994 
77 1 2 -1.0 -12.78 9.94 29.939999999999994 
78 1 1 1.0 -12.78 12.78 29.939999999999994 
79 1 1 1.0 -9.94 9.94 29.939999999999994 
80 1 2 -1.0 -9.94 12.78 29.939999999999994 
81 1 1 1.0 -7.1 -12.78 21.419999999999995 
82 1 2 -1.0 -7.1 -9.94 21.419999999999995 
83 1 2 -1.0 -4.26 -12.78 21.419999999999995 
84 1 1 1.0 -4.26 -9.94 21.419999999999995 
85 1 2 -1.0 -7.1 -12.78 24.259999999999994 
86 1 1 1.0 -7.1 -9.94 24.259999999999994 
87 1 1 1.0 -4.26 -12.78 24.259999999999994 
88 1 2 -1.0 -4.26 -9.94 24.259999999999994 
89 1 1 1.0 -7.1 -12.78 27.099999999999994 
90 1 2 -1.0 -7.1 -9.94 27.099999999999994 
91 1 2 -1.0 -4.26 -12.78 27.099999999999994 
92 1 1 1.0 -4.26 -9.94 27.099999999999994 
93 1 2 -1.0 -7.1 -12.78 29.939999999999994 
94 1 1 1.0 -7.1 -9.94 29.939999999999994 
95 1 1 1.0 -4.26 -12.78 29.939999999999994 
96 1 2 -1.0 -4.26 -9.94 29.939999999999994 
97 1 1 1.0 -7.1 -7.1 21.419999999999995 
98 1 2 -1.0 -7.1 -4.26 21.419999999999995 
99 1 2 -1.0 -4.26 -7.1 21.419999999999995 
100 1 1 1.0 -4.26 -4.26 21.419999999999995 
101 1 2 -1.0 -7.1 -7.1 24.259999999999994 
102 1 1 1.0 -7.1 -4.26 24.259999999999994 
103 1 1 1.0 -4.26 -7.1 24.259999999999994 
104 1 2 -1.0 -4.26 -4.26 24.259999999999994 
105 1 1 1.0 -7.1 -7.1 27.099999999999994 
106 1 2 -1.0 -7.1 -4.26 27.099999999999994 
107 1 2 -1.0 -4.26 -7.1 27.099999999999994 
108 1 1 1.0 -4.26 -4.26 27.099999999999994 
109 1 2 -1.0 -7.1 -7.1 29.939999999999994 
110 1 1 1.0 -7.1 -4.26 29.939999999999994 
111 1 1 1.0 -4.26 -7.1 29.939999999999994 
112 1 2 -1.0 -4.26 -4.26 29.939999999999994 
113 1 1 1.0 -7.1 -1.42 21.419999999999995 
114 1 2 -1.0 -7.1 1.42 21.419999999999995 
115 1 2 -1.0 -4.26 -1.42 21.419999999999995 
116 1 1 1.0 -4.26 1.42 21.419999999999995 
117 1 2 -1.0 -7.1 -1.42 24.259999999999994 
118 1 1 1.0 -7.1 1.42 24.259999999999994 
119 1 1 1.0 -4.26 -1.42 24.259999999999994 
120 1 2 -1.0 -4.26 1.42 24.259999999999994 
121 1 1 1.0 -7.1 -1.42 27.099999999999994 
122 1 2 -1.0 -7.1 1.42 27.099999999999994 
123 1 2 -1.0 -4.26 -1.42 27.099999999999994 
124 1 1 1.0 -4.26 1.42 27.099999999999994 
125 1 2 -1.0 -7.1 -1.42 29.939999999999994 
126 1 1 1.0 -7.1 1.42 29.939999999999994 
127 1 1 1.0 -4.26 -1.42 29.939999999999994 
128 1 2 -1.0 -4.26 1.42 29.939999999999994 
129 1 1 1.0 -7.1 4.26 21.419999999999995 
130 1 2 -1.0 -7.1 7.1 21.419999999999995 
131 1 2 -1.0 -4.26 4.26 21.419999999999995 
132 1 1 1.0 -4.26 7.1 21.419999999999995 
133 1 2 -1.0 -7.1 4.26 24.259999999999994 
134 1 1 1.0 -7.1 7.1 24.259999999999994 
135 1 1 1.0 -4.26 4.26 24.259999999999994 
136 1 2 -1.0 -4.26 7.1 24.259999999999994 
137 1 1 1.0 -7.1 4.26 27.099999999999994 
138 1 2 -1.0 -7.1 7.1 27.099999999999994 
139 1 2 -1.0 -4.26 4.26 27.099999999999994 
140 1 1 1.0 -4.26 7.1 27.099999999999994 
141 1 2 -1.0 -7.1 4.26 29.939999999999994 
142 1 1 1.0 -7.1 7.1 29.939999999999994 
143 1 1 1.0 -4.26 4.26 29.939999999999994 
144 1 2 -1.0 -4.26 7.1 29.939999999999994 
145 1 1 1.0 -7.1 9.94 21.419999999999995 
146 1 2 -1.0 -7.1 12.78 21.419999999999995 
147 1 2 -1.0 -4.26 9.94 21.419999999999995 
148 1 1 1.0 -4.26 12.78 21.419999999999995 
149 1 2 -1.0 -7.1 9.94 24.259999999999994 
150 1 1 1.0 -7.1 12.78 24.259999999999994 
151 1 1 1.0 -4.26 9.94 24.259999999999994 
152 1 2 -1.0 -4.26 12.78 24.259999999999994 
153 1 1 1.0 -7.1 9.94 27.099999999999994 
154 1 2 -1.0 -7.1 12.78 27.099999999999994 
155 1 2 -1.0 -4.26 9.94 27.099999999999994 
156 1 1 1.0 -4.26 12.78 27.099999999999994 
157 1 2 -1.0 -7.1 9.94 29.939999999999994 
158 1 1 1.0 -7.1 12.78 29.939999999999994 
159 1 1 1.0 -4.26 9.94 29.939999999999994 
160 1 2 -1.0 -4.26 12.78 29.939999999999994 
161 1 1 1.0 -1.42 -12.78 21.419999999999995 
162 1 2 -1.0 -1.42 -9.94 21.419999999999995 
163 1 2 -1.0 1.42 -12.78 21.419999999999995 
164 1 1 1.0 1.42 -9.94 21.419999999999995 
165 1 2 -1.0 -1.42 -12.78 24.259999999999994 
166 1 1 1.0 -1.42 -9.94 24.259999999999994 
167 1 1 1.0 1.42 -12.78 24.259999999999994 
168 1 2 -1.0 1.42 -9.94 24.259999999999994 
169 1 1 1.0 -1.42 -12.78 27.099999999999994 
170 1 2 -1.0 -1.42 -9.94 27.099999999999994 
171 1 2 -1.0 1.42 -12.78 27.099999999999994 
172 1 1 1.0 1.42 -9.94 27.099999999999994 
173 1 2 -1.0 -1.42 -12.78 29.939999999999994 
174 1 1 1.0 -1.42 -9.94 29.939999999999994 
175 1 1 1.0 1.42 -12.78 29.939999999999994 
176 1 2 -1.0 1.42 -9.94 29.939999999999994 
177 1 1 1.0 -1.42 -7.1 21.419999999999995 
178 1 2 -1.0 -1.42 -4.26 21.419999999999995 
179 1 2 -1.0 1.42 -7.1 21.419999999999995 
180 1 1 1.0 1.42 -4.26 21.419999999999995 
181 1 2 -1.0 -1.42 -7.1 24.259999999999994 
182 1 1 1.0 -1.42 -4.26 24.259999999999994 
183 1 1 1.0 1.42 -7.1 24.259999999999994 
184 1 2 -1.0 1.42 -4.26 24.259999999999994 
185 1 1 1.0 -1.42 -7.1 27.099999999999994 
186 1 2 -1.0 -1.42 -4.26 27.099999999999994 
187 1 2 -1.0 1.42 -7.1 27.099999999999994 
188 1 1 1.0 1.42 -4.26 27.099999999999994 
189 1 2 -1.0 -1.42 -7.1 29.939999999999994 
190 1 1 1.0 -1.42 -4.26 29.939999999999994 
191 1 1 1.0 1.42 -7.1 29.939999999999994 
192 1 2 -1.0 1.42 -4.26 29.939999999999994 
193 1 1 1.0 -1.42 -1.42 21.419999999999995 
194 1 2 -1.0 -1.42 1.42 21.419999999999995 
195 1 2 -1.0 1.42 -1.42 21.419999999999995 
196 1 1 1.0 1.42 1.42 21.419999999999995 
197 1 2 -1.0 -1.42 -1.42 24.259999999999994 
198 1 1 1.0 -1.42 1.42 24.259999999999994 
199 1 1 1.0 1.42 -1.42 24.259999999999994 
200 1 2 -1.0 1.42 1.42 24.259999999999994 
201 1 1 1.0 -1.42 -1.42 27.099999999999994 
202 1 2 -1.0 -1.42 1.42 27.099999999999994 
203 1 2 -1.0 1.42 -1.42 27.099999999999994 
204 1 1 1.0 1.42 1.42 27.099999999999994 
205 1 2 -1.0 -1.42 -1.42 29.939999999999994 
206 1 1 1.0 -1.42 1.42 29.939999999999994 
207 1 1 1.0 1.42 -1.42 29.939999999999994 
208 1 2 -1.0 1.42 1.42 29.939999999999994 
209 1 1 1.0 -1.42 4.26 21.419999999999995 
210 1 2 -1.0 -1.42 7.1 21.419999999999995 
211 1 2 -1.0 1.42 4.26 21.419999999999995 
212 1 1 1.0 1.42 7.1 21.419999999999995 
213 1 2 -1.0 -1.42 4.26 24.259999999999994 
214 1 1 1.0 -1.42 7.1 24.259999999999994 
215 1 1 1.0 1.42 4.26 24.259999999999994 
216 1 2 -1.0 1.42 7.1 24.259999999999994 
217 1 1 1.0 -1.42 4.26 27.099999999999994 
218 1 2 -1.0 -1.42 7.1 27.099999999999994 
219 1 2 -1.0 1.42 4.26 27.099999999999994 
220 1 1 1.0 1.42 7.1 27.099999999999994 
221 1 2 -1.0 -1.42 4.26 29.939999999999994 
222 1 1 1.0 -1.42 7.1 29.939999999999994 
223 1 1 1.0 1.42 4.26 29.939999999999994 
224 1 2 -1.0 1.42 7.1 29.939999999999994 
225 1 1 1.0 -1.42 9.94 21.419999999999995 
226 1 2 -1.0 -1.42 12.78 21.419999999999995 
227 1 2 -1.0 1.42 9.94 21.419999999999995 
228 1 1 1.0 1.42 12.78 21.419999999999995 
229 1 2 -1.0 -1.42 9.94 24.259999999999994 
230 1 1 1.0 -1.42 12.78 24.259999999999994 
231 1 1 1.0 1.42 9.94 24.259999999999994 
232 1 2 -1.0 1.42 12.78 24.259999999999994 
233 1 1 1.0 -1.42 9.94 27.099999999999994 
234 1 2 -1.0 -1.42 12.78 27.099999999999994 
235 1 2 -1.0 1.42 9.94 27.099999999999994 
236 1 1 1.0 1.42 12.78 27.099999999999994 
237 1 2 -1.0 -1.42 9.94 29.939999999999994 
238 1 1 1.0 -1.42 12.78 29.939999999999994 
239 1 1 1.0 1.42 9.94 29.939999999999994 
240 1 2 -1.0 1.42 12.78 29.939999999999994 
241 1 1 1.0 4.26 -12.78 21.419999999999995 
242 1 2 -1.0 4.26 -9.94 21.419999999999995 
243 1 2 -1.0 7.1 -12.78 21.419999999999995 
244 1 1 1.0 7.1 -9.94 21.419999999999995 
245 1 2 -1.0 4.26 -12.78 24.259999999999994 
246 1 1 1.0 4.26 -9.94 24.259999999999994 
247 1 1 1.0 7.1 -12.78 24.259999999999994 
248 1 2 -1.0 7.1 -9.94 24.259999999999994 
249 1 1 1.0 4.26 -12.78 27.099999999999994 
250 1 2 -1.0 4.26 -9.94 27.099999999999994 
251 1 2 -1.0 7.1 -12.78 27.099999999999994 
252 1 1 1.0 7.1 -9.94 27.099999999999994 
253 1 2 -1.0 4.26 -12.78 29.939999999999994 
254 1 1 1.0 4.26 -9.94 29.939999999999994 
255 1 1 1.0 7.1 -12.78 29.939999999999994 
256 1 2 -1.0 7.1 -9.94 29.939999999999994 
257 1 1 1.0 4.26 -7.1 21.419999999999995 
258 1 2 -1.0 4.26 -4.26 21.419999999999995 
259 1 2 -1.0 7.1 -7.1 21.419999999999995 
260 1 1 1.0 7.1 -4.26 21.419999999999995 
261 1 2 -1.0 4.26 -7.1 24.259999999999994 
262 1 1 1.0 4.26 -4.26 24.259999999999994 
263 1 1 1.0 7.1 -7.1 24.259999999999994 
264 1 2 -1.0 7.1 -4.26 24.259999999999994 
265 1 1 1.0 4.26 -7.1 27.099999999999994 
266 1 2 -1.0 4.26 -4.26 27.099999999999994 
267 1 2 -1.0 7.1 -7.1 27.099999999999994 
268 1 1 1.0 7.1 -4.26 27.099999999999994 
269 1 2 -1.0 4.26 -7.1 29.939999999999994 
270 1 1 1.0 4.26 -4.26 29.939999999999994 
271 1 1 1.0 7.1 -7.1 29.939999999999994 
272 1 2 -1.0 7.1 -4.26 29.939999999999994 
273 1 1 1.0 4.26 -1.42 21.419999999999995 
274 1 2 -1.0 4.26 1.42 21.419999999999995 
275 1 2 -1.0 7.1 -1.42 21.419999999999995 
276 1 1 1.0 7.1 1.42 21.419999999999995 
277 1 2 -1.0 4.26 -1.42 24.259999999999994 
278 1 1 1.0 4.26 1.42 24.259999999999994 
279 1 1 1.0 7.1 -1.42 24.259999999999994 
280 1 2 -1.0 7.1 1.42 24.259999999999994 
281 1 1 1.0 4.26 -1.42 27.099999999999994 
282 1 2 -1.0 4.26 1.42 27.099999999999994 
283 1 2 -1.0 7.1 -1.42 27.099999999999994 
284 1 1 1.0 7.1 1.42 27.099999999999994 
285 1 2 -1.0 4.26 -1.42 29.939999999999994 
286 1 1 1.0 4.26 1.42 29.939999999999994 
287 1 1 1.0 7.1 -1.42 29.939999999999994 
288 1 2 -1.0 7.1 1.42 29.939999999999994 
289 1 1 1.0 4.26 4.26 21.419999999999995 
290 1 2 -1.0 4.26 7.1 21.419999999999995 
291 1 2 -1.0 7.1 4.26 21.419999999999995 
292 1 1 1.0 7.1 7.1 21.419999999999995 
293 1 2 -1.0 4.26 4.26 24.259999999999994 
294 1 1 1.0 4.26 7.1 24.259999999999994 
295 1 1 1.0 7.1 4.26 24.259999999999994 
296 1 2 -1.0 7.1 7.1 24.259999999999994 
297 1 1 1.0 4.26 4.26 27.099999999999994 
298 1 2 -1.0 4.26 7.1 27.099999999999994 
299 1 2 -1.0 7.1 4.26 27.099999999999994 
300 1 1 1.0 7.1 7.1 27.099999999999994 
301 1 2 -1.0 4.26 4.26 29.939999999999994 
302 1 1 1.0 4.26 7.1 29.939999999999994 
303 1 1 1.0 7.1 4.26 29.939999999999994 
304 1 2 -1.0 7.1 7.1 29.939999999999994 
305 1 1 1.0 4.26 9.94 21.419999999999995 
306 1 2 -1.0 4.26 12.78 21.419999999999995 
307 1 2 -1.0 7.1 9.94 21.419999999999995 
308 1 1 1.0 7.1 12.78 21.419999999999995 
309 1 2 -1.0 4.26 9.94 24.259999999999994 
310 1 1 1.0 4.26 12.78 24.259999999999994 
311 1 1 1.0 7.1 9.94 24.259999999999994 
312 1 2 -1.0 7.1 12.78 24.259999999999994 
313 1 1 1.0 4.26 9.94 27.099999999999994 
314 1 2 -1.0 4.26 12.78 27.099999999999994 
315 1 2 -1.0 7.1 9.94 27.099999999999994 
316 1 1 1.0 7.1 12.78 27.099999999999994 
317 1 2 -1.0 4.26 9.94 29.939999999999994 
318 1 1 1.0 4.26 12.78 29.939999999999994 
319 1 1 1.0 7.1 9.94 29.939999999999994 
320 1 2 -1.0 7.1 12.78 29.939999999999994 
321 1 1 1.0 9.94 -12.78 21.419999999999995 
322 1 2 -1.0 9.94 -9.94 21.419999999999995 
323 1 2 -1.0 12.78 -12.78 21.419999999999995 
324 1 1 1.0 12.78 -9.94 21.419999999999995 
325 1 2 -1.0 9.94 -12.78 24.259999999999994 
326 1 1 1.0 9.94 -9.94 24.259999999999994 
327 1 1 1.0 12.78 -12.78 24.259999999999994 
328 1 2 -1.0 12.78 -9.94 24.259999999999994 
329 1 1 1.0 9.94 -12.78 27.099999999999994 
330 1 2 -1.0 9.94 -9.94 27.099999999999994 
331 1 2 -1.0 12.78 -12.78 27.099999999999994 
332 1 1 1.0 12.78 -9.94 27.099999999999994 
333 1 2 -1.0 9.94 -12.78 29.939999999999994 
334 1 1 1.0 9.94 -9.94 29.939999999999994 
335 1 1 1.0 12.78 -12.78 29.939999999999994 
336 1 2 -1.0 12.78 -9.94 29.939999999999994 
337 1 1 1.0 9.94 -7.1 21.419999999999995 
338 1 2 -1.0 9.94 -4.26 21.419999999999995 
339 1 2 -1.0 12.78 -7.1 21.419999999999995 
340 1 1 1.0 12.78 -4.26 21.419999999999995 
341 1 2 -1.0 9.94 -7.1 24.259999999999994 
342 1 1 1.0 9.94 -4.26 24.259999999999994 
343 1 1 1.0 12.78 -7.1 24.259999999999994 
344 1 2 -1.0 12.78 -4.26 24.259999999999994 
345 1 1 1.0 9.94 -7.1 27.099999999999994 
346 1 2 -1.0 9.94 -4.26 27.099999999999994 
347 1 2 -1.0 12.78 -7.1 27.099999999999994 
348 1 1 1.0 12.78 -4.26 27.099999999999994 
349 1 2 -1.0 9.94 -7.1 29.939999999999994 
350 1 1 1.0 9.94 -4.26 29.939999999999994 
351 1 1 1.0 12.78 -7.1 29.939999999999994 
352 1 2 -1.0 12.78 -4.26 29.939999999999994 
353 1 1 1.0 9.94 -1.42 21.419999999999995 
354 1 2 -1.0 9.94 1.42 21.419999999999995 
355 1 2 -1.0 12.78 -1.42 21.419999999999995 
356 1 1 1.0 12.78 1.42 21.419999999999995 
357 1 2 -1.0 9.94 -1.42 24.259999999999994 
358 1 1 1.0 9.94 1.42 24.259999999999994 
359 1 1 1.0 12.78 -1.42 24.259999999999994 
360 1 2 -1.0 12.78 1.42 24.259999999999994 
361 1 1 1.0 9.94 -1.42 27.099999999999994 
362 1 2 -1.0 9.94 1.42 27.099999999999994 
363 1 2 -1.0 12.78 -1.42 27.099999999999994 
364 1 1 1.0 12.78 1.42 27.099999999999994 
365 1 2 -1.0 9.94 -1.42 29.939999999999994 
366 1 1 1.0 9.94 1.42 29.939999999999994 
367 1 1 1.0 12.78 -1.42 29.939999999999994 
368 1 2 -1.0 12.78 1.42 29.939999999999994 
369 1 1 1.0 9.94 4.26 21.419999999999995 
370 1 2 -1.0 9.94 7.1 21.419999999999995 
371 1 2 -1.0 12.78 4.26 21.419999999999995 
372 1 1 1.0 12.78 7.1 21.419999999999995 
373 1 2 -1.0 9.94 4.26 24.259999999999994 
374 1 1 1.0 9.94 7.1 24.259999999999994 
375 1 1 1.0 12.78 4.26 24.259999999999994 
376 1 2 -1.0 12.78 7.1 24.259999999999994 
377 1 1 1.0 9.94 4.26 27.099999999999994 
378 1 2 -1.0 9.94 7.1 27.099999999999994 
379 1 2 -1.0 12.78 4.26 27.099999999999994 
380 1 1 1.0 12.78 7.1 27.099999999999994 
381 1 2 -1.0 9.94 4.26 29.939999999999994 
382 1 1 1.0 9.94 7.1 29.939999999999994 
383 1 1 1.0 12.78 4.26 29.939999999999994 
384 1 2 -1.0 12.78 7.1 29.939999999999994 
385 1 1 1.0 9.94 9.94 21.419999999999995 
386 1 2 -1.0 9.94 12.78 21.419999999999995 
387 1 2 -1.0 12.78 9.94 21.419999999999995 
388 1 1 1.0 12.78 12.78 21.419999999999995 
389 1 2 -1.0 9.94 9.94 24.259999999999994 
390 1 1 1.0 9.94 12.78 24.259999999999994 
391 1 1 1.0 12.78 9.94 24.259999999999994 
392 1 2 -1.0 12.78 12.78 24.259999999999994 
393 1 1 1.0 9.94 9.94 27.099999999999994 
394 1 2 -1.0 9.94 12.78 27.099999999999994 
395 1 2 -1.0 12.78 9.94 27.099999999999994 
396 1 1 1.0 12.78 12.78 27.099999999999994 
397 1 2 -1.0 9.94 9.94 29.939999999999994 
398 1 1 1.0 9.94 12.78 29.939999999999994 
399 1 1 1.0 12.78 9.94 29.939999999999994 
400 1 2 -1.0 12.78 12.78 29.939999999999994 
401 2 5 0.416 -10.137421792161799 1.0220316420486624 -13.376433755515512 
402 2 7 -0.682 -9.757680151653632 1.9038128100777378 -13.233640711731285 
403 2 6 0.372 -8.555236724834849 1.9819655445810977 -14.006167238864029 
404 2 4 -0.029 -8.77263011874612 1.842657733608142 -15.076834139551988 
405 2 4 -0.029 -7.849125825864898 1.1905799428160235 -13.710182970124963 
406 2 3 -0.285 -7.931933145905329 3.349279993901659 -13.77694814915363 
407 2 4 0.079 -7.015325882235577 3.4550559477282237 -14.367959660507271 
408 2 4 0.079 -7.680455363934269 3.487331122122315 -12.719316034906592 
409 2 4 0.079 -8.627075654551287 4.143288921247369 -14.072515874225646 
410 3 5 0.416 -5.986168383478912 0.18328558353220847 -1.2886178517676172 
411 3 7 -0.682 -5.666790095919637 1.0833954904425402 -1.115611319817817 
412 3 6 0.372 -4.5524536708415315 1.3160797253415915 -1.983302312226648 
413 3 4 -0.029 -4.857597807865677 1.2290270049534997 -3.037960098267182 
414 3 4 -0.029 -3.7603441318288584 0.5711984390975953 -1.8095070094281 
415 3 3 -0.285 -4.022282679484017 2.7142922779164933 -1.7103225993178535 
416 3 4 0.079 -3.176751034838654 2.9377309681485446 -2.370476690711126 
417 3 4 0.079 -3.6844396759370346 2.8039074428628386 -0.6717100127001414 
418 3 4 0.079 -4.803679696033576 3.4627052332647277 -1.884478606764907 
419 4 5 0.416 9.160413192969727 6.531037974318447 7.623191239027964 
420 4 7 -0.682 9.155810803937822 6.62022523508911 8.589708722424485 
421 4 6 0.372 8.00832353792183 7.399976819765497 8.941895775366019 
422 4 4 -0.029 7.083910686944858 6.899714759902048 8.612968855590662 
423 4 4 -0.029 8.039895834364078 8.384787266095547 8.450324789075342 
424 4 3 -0.285 7.996324028572633 7.571287485662484 10.452228921873804 
425 4 4 0.079 7.119400519382881 8.149605788026337 10.764006302313613 
426 4 4 0.079 8.89651987582122 8.097743637421424 10.788942798609394 
427 4 4 0.079 7.9612586990739524 6.59542640523512 10.949721774596147 
428 5 5 0.416 -3.6785492292481416 -3.212639944033779 11.552796616338815 
429 5 7 -0.682 -3.2027404614167745 -3.5307771464467925 12.33671391559642 
430 5 6 0.372 -4.0944800226693925 -3.423463443127034 13.451191193835244 
431 5 4 -0.029 -4.992944755720668 -4.03957770409124 13.289455276232726 
432 5 4 -0.029 -4.430693705758686 -2.3832581982925567 13.583190692275943 
433 5 3 -0.285 -3.3587569212942783 -3.895392780609262 14.694811620027002 
434 5 4 0.079 -4.016585570999313 -3.845468468559886 15.569695078246571 
435 5 4 0.079 -2.480058788570007 -3.268952018428842 14.885459045764769 
436 5 4 0.079 -3.0235595212237496 -4.93169580739212 14.573352557778955 
437 6 5 0.416 -5.826513543671031 -12.79572890732261 13.860025445824828 
438 6 7 -0.682 -5.001633049058128 -12.737756755191947 14.368299972399031 
439 6 6 0.372 -5.309707014830394 -13.078173651799922 15.724021937940261 
440 6 4 -0.029 -5.709730942694211 -14.102496071908536 15.785166054111272 
441 6 4 -0.029 -6.077768840925528 -12.402314880638507 16.1311907142552 
442 6 3 -0.285 -4.033252380486273 -12.969988351617916 16.54228659757108 
443 6 4 0.079 -4.224776139066817 -13.24170171644682 17.58638550670044 
444 6 4 0.079 -3.6427947377705365 -11.946388724759778 16.516373067215426 
445 6 4 0.079 -3.2641085550172564 -13.642509405228576 16.145843950610864 
446 7 5 0.416 -4.767565889111807 -10.620648301521747 -8.853985868134906 
447 7 7 -0.682 -4.414355504703849 -9.73697373053696 -8.66295374486514 
448 7 6 0.372 -3.3943083938123317 -9.88937187060557 -7.670454889349766 
449 7 4 -0.029 -2.585410420461221 -10.537738620872906 -8.042340344832148 
450 7 4 -0.029 -3.8006865208288 -10.36163733514437 -6.762538258511473 
451 7 3 -0.285 -2.8442232809398744 -8.511443088604294 -7.339824905465404 
452 7 4 0.079 -2.045112814823121 -8.588134056714615 -6.5940414294312735 
453 7 4 0.079 -3.633352778088007 -7.866291147159543 -6.937409091790609 
454 7 4 0.079 -2.4341800838595065 -8.035402399958727 -8.237757755637118 
455 8 5 0.416 1.9278498656885965 -12.604258227670433 9.6498446767456 
456 8 7 -0.682 1.9197523311579356 -12.545536120102943 10.618667539397528 
457 8 6 0.372 3.203688772506141 -12.974232812322084 11.083964907101567 
458 8 4 -0.029 3.998055783474365 -12.326150169407745 10.68151726332455 
459 8 4 -0.029 3.4176733070742427 -14.000822080130991 10.748084639965397 
460 8 3 -0.285 3.2030977878469544 -12.91203895054393 12.602756900828506 
461 8 4 0.079 4.178767138848051 -13.216441447352038 12.997801799829462 
462 8 4 0.079 2.4380677477436334 -13.57847356015984 13.01685692106558 
463 8 4 0.079 2.9943760712503904 -11.892353998365804 12.945847861738304 
464 9 5 0.416 -4.988160972549606 10.598925975377844 -10.49679386235118 
465 9 7 -0.682 -5.369422170672275 11.42270227224316 -10.15304379804769 
466 9 6 0.372 -6.630542590217239 11.095703005817334 -9.560235189053575 
467 9 4 -0.029 -6.496705997304498 10.378460470116513 -8.73522302094812 
468 9 4 -0.029 -7.298144525947492 10.62437813774923 -10.298239920621079 
469 9 3 -0.285 -7.255469260857912 12.378472884336762 -9.036245073688772 
470 9 4 0.079 -8.217713593724593 12.166415653673106 -8.556902180175367 
471 9 4 0.079 -7.424293680246436 13.088484857754944 -9.853720572364844 
472 9 4 0.079 -6.598808522203198 12.852548318610284 -8.297947897029298 
473 10 5 0.416 -8.765923970884948 -7.304871131092854 -8.385289366787758 
474 10 7 -0.682 -9.186799572229585 -6.7843012812514685 -7.682436355974951 
475 10 6 0.372 -9.874794979098853 -7.700801151523885 -6.8248434527561415 
476 10 4 -0.029 -9.168899699861198 -8.419463414826913 -6.379612532673919 
477 10 4 -0.029 -10.619067254230043 -8.281738649945947 -7.391465781176388 
478 10 3 -0.285 -10.561406597218896 -6.901426829056696 -5.729324067095852 
479 10 4 0.079 -11.085846068133376 -7.5716521020606615 -5.039097032312163 
480 10 4 0.079 -11.290966627448551 -6.205100249218691 -6.157992160633446 
481 10 4 0.079 -9.827020612498105 -6.32266126005421 -5.157711256079136 
482 11 5 0.416 2.55993758779928 8.909635492773678 -11.184884789664393 
483 11 7 -0.682 2.7923092400465195 8.093467238332618 -10.713711370577277 
484 11 6 0.372 4.04014792023022 7.634140814023129 -11.243516187375212 
485 11 4 -0.029 4.828275734744193 8.387497883446215 -11.087625712737452 
486 11 4 -0.029 3.963419832160779 7.460791726562515 -12.328206628950134 
487 11 3 -0.285 4.410097839040407 6.341802985817079 -10.533870119764881 
488 11 4 0.079 5.372305306639031 5.966883023695781 -10.900263141086239 
489 11 4 0.079 3.649046361954955 5.572971287954885 -10.708751072138575 
490 11 4 0.079 4.492183455908141 6.506192167680007 -9.453466624525527 

Bonds

1 5 401 402 
2 2 402 403 
3 4 403 404 
4 4 403 405 
5 3 403 406 
6 1 406 407 
7 1 406 408 
8 1 406 409 
9 5 410 411 
10 2 411 412 
11 4 412 413 
12 4 412 414 
13 3 412 415 
14 1 415 416 
15 1 415 417 
16 1 415 418 
17 5 419 420 
18 2 420 421 
19 4 421 422 
20 4 421 423 
21 3 421 424 
22 1 424 425 
23 1 424 426 
24 1 424 427 
25 5 428 429 
26 2 429 430 
27 4 430 431 
28 4 430 432 
29 3 430 433 
30 1 433 434 
31 1 433 435 
32 1 433 436 
33 5 437 438 
34 2 438 439 
35 4 439 440 
36 4 439 441 
37 3 439 442 
38 1 442 443 
39 1 442 444 
40 1 442 445 
41 5 446 447 
42 2 447 448 
43 4 448 449 
44 4 448 450 
45 3 448 451 
46 1 451 452 
47 1 451 453 
48 1 451 454 
49 5 455 456 
50 2 456 457 
51 4 457 458 
52 4 457 459 
53 3 457 460 
54 1 460 461 
55 1 460 462 
56 1 460 463 
57 5 464 465 
58 2 465 466 
59 4 466 467 
60 4 466 468 
61 3 466 469 
62 1 469 470 
63 1 469 471 
64 1 469 472 
65 5 473 474 
66 2 474 475 
67 4 475 476 
68 4 475 477 
69 3 475 478 
70 1 478 479 
71 1 478 480 
72 1 478 481 
73 5 482 483 
74 2 483 484 
75 4 484 485 
76 4 484 486 
77 3 484 487 
78 1 487 488 
79 1 487 489 
80 1 487 490 

Angles

1 1 401 402 403 
2 3 402 403 404 
3 3 402 403 405 
4 2 402 403 406 
5 4 404 403 405 
6 6 404 403 406 
7 6 405 403 406 
8 6 403 406 407 
9 6 403 406 408 
10 6 403 406 409 
11 5 407 406 408 
12 5 407 406 409 
13 5 408 406 409 
14 1 410 411 412 
15 3 411 412 413 
16 3 411 412 414 
17 2 411 412 415 
18 4 413 412 414 
19 6 413 412 415 
20 6 414 412 415 
21 6 412 415 416 
22 6 412 415 417 
23 6 412 415 418 
24 5 416 415 417 
25 5 416 415 418 
26 5 417 415 418 
27 1 419 420 421 
28 3 420 421 422 
29 3 420 421 423 
30 2 420 421 424 
31 4 422 421 423 
32 6 422 421 424 
33 6 423 421 424 
34 6 421 424 425 
35 6 421 424 426 
36 6 421 424 427 
37 5 425 424 426 
38 5 425 424 427 
39 5 426 424 427 
40 1 428 429 430 
41 3 429 430 431 
42 3 429 430 432 
43 2 429 430 433 
44 4 431 430 432 
45 6 431 430 433 
46 6 432 430 433 
47 6 430 433 434 
48 6 430 433 435 
49 6 430 433 436 
50 5 434 433 435 
51 5 434 433 436 
52 5 435 433 436 
53 1 437 438 439 
54 3 438 439 440 
55 3 438 439 441 
56 2 438 439 442 
57 4 440 439 441 
58 6 440 439 442 
59 6 441 439 442 
60 6 439 442 443 
61 6 439 442 444 
62 6 439 442 445 
63 5 443 442 444 
64 5 443 442 445 
65 5 444 442 445 
66 1 446 447 448 
67 3 447 448 449 
68 3 447 448 450 
69 2 447 448 451 
70 4 449 448 450 
71 6 449 448 451 
72 6 450 448 451 
73 6 448 451 452 
74 6 448 451 453 
75 6 448 451 454 
76 5 452 451 453 
77 5 452 451 454 
78 5 453 451 454 
79 1 455 456 457 
80 3 456 457 458 
81 3 456 457 459 
82 2 456 457 460 
83 4 458 457 459 
84 6 458 457 460 
85 6 459 457 460 
86 6 457 460 461 
87 6 457 460 462 
88 6 457 460 463 
89 5 461 460 462 
90 5 461 460 463 
91 5 462 460 463 
92 1 464 465 466 
93 3 465 466 467 
94 3 465 466 468 
95 2 465 466 469 
96 4 467 466 468 
97 6 467 466 469 
98 6 468 466 469 
99 6 466 469 470 
100 6 466 469 471 
101 6 466 469 472 
102 5 470 469 471 
103 5 470 469 472 
104 5 471 469 472 
105 1 473 474 475 
106 3 474 475 476 
107 3 474 475 477 
108 2 474 475 478 
109 4 476 475 477 
110 6 476 475 478 
111 6 477 475 478 
112 6 475 478 479 
113 6 475 478 480 
114 6 475 478 481 
115 5 479 478 480 
116 5 479 478 481 
117 5 480 478 481 
118 1 482 483 484 
119 3 483 484 485 
120 3 483 484 486 
121 2 483 484 487 
122 4 485 484 486 
123 6 485 484 487 
124 6 486 484 487 
125 6 484 487 488 
126 6 484 487 489 
127 6 484 487 490 
128 5 488 487 489 
129 5 488 487 490 
130 5 489 487 490 

Dihedrals

1 3 401 402 403 404 
2 3 401 402 403 405 
3 1 401 402 403 406 
4 2 402 403 406 407 
5 3 402 403 406 408 
6 3 402 403 406 409 
7 3 404 403 406 407 
8 3 404 403 406 408 
9 3 404 403 406 409 
10 3 405 403 406 407 
11 3 405 403 406 408 
12 3 405 403 406 409 
13 3 410 411 412 413 
14 3 410 411 412 414 
15 1 410 411 412 415 
16 2 411 412 415 416 
17 3 411 412 415 417 
18 3 411 412 415 418 
19 3 413 412 415 416 
20 3 413 412 415 417 
21 3 413 412 415 418 
22 3 414 412 415 416 
23 3 414 412 415 417 
24 3 414 412 415 418 
25 3 419 420 421 422 
26 3 419 420 421 423 
27 1 419 420 421 424 
28 2 420 421 424 425 
29 3 420 421 424 426 
30 3 420 421 424 427 
31 3 422 421 424 425 
32 3 422 421 424 426 
33 3 422 421 424 427 
34 3 423 421 424 425 
35 3 423 421 424 426 
36 3 423 421 424 427 
37 3 428 429 430 431 
38 3 428 429 430 432 
39 1 428 429 430 433 
40 2 429 430 433 434 
41 3 429 430 433 435 
42 3 429 430 433 436 
43 3 431 430 433 434 
44 3 431 430 433 435 
45 3 431 430 433 436 
46 3 432 430 433 434 
47 3 432 430 433 435 
48 3 432 430 433 436 
49 3 437 438 439 440 
50 3 437 438 439 441 
51 1 437 438 439 442 
52 2 438 439 442 443 
53 3 438 439 442 444 
54 3 438 439 442 445 
55 3 440 439 442 443 
56 3 440 439 442 444 
57 3 440 439 442 445 
58 3 441 439 442 443 
59 3 441 439 442 444 
60 3 441 439 442 445 
61 3 446 447 448 449 
62 3 446 447 448 450 
63 1 446 447 448 451 
64 2 447 448 451 452 
65 3 447 448 451 453 
66 3 447 448 451 454 
67 3 449 448 451 452 
68 3 449 448 451 453 
69 3 449 448 451 454 
70 3 450 448 451 452 
71 3 450 448 451 453 
72 3 450 448 451 454 
73 3 455 456 457 458 
74 3 455 456 457 459 
75 1 455 456 457 460 
76 2 456 457 460 461 
77 3 456 457 460 462 
78 3 456 457 460 463 
79 3 458 457 460 461 
80 3 458 457 460 462 
81 3 458 457 460 463 
82 3 459 457 460 461 
83 3 459 457 460 462 
84 3 459 457 460 463 
85 3 464 465 466 467 
86 3 464 465 466 468 
87 1 464 465 466 469 
88 2 465 466 469 470 
89 3 465 466 469 471 
90 3 465 466 469 472 
91 3 467 466 469 470 
92 3 467 466 469 471 
93 3 467 466 469 472 
94 3 468 466 469 470 
95 3 468 466 469 471 
96 3 468 466 469 472 
97 3 473 474 475 476 
98 3 473 474 475 477 
99 1 473 474 475 478 
100 2 474 475 478 479 
101 3 474 475 478 480 
102 3 474 475 478 481 
103 3 476 475 478 479 
104 3 476 475 478 480 
105 3 476 475 478 481 
106 3 477 475 478 479 
107 3 477 475 478 480 
108 3 477 475 478 481 
109 3 482 483 484 485 
110 3 482 483 484 486 
111 1 482 483 484 487 
112 2 483 484 487 488 
113 3 483 484 487 489 