# LAMMPS data file 

66 atoms
65 bonds
118 angles
74 dihedrals

7 atom types
6 bond types
9 angle types
14 dihedral types

-21.662 21.662 xlo xhi
-8.123 8.123 ylo yhi
-8.123 8.123 zlo zhi

Atoms

1 1 3 0.05 -22.400000000000006 -0.0 0.0 
2 1 5 0.09 -22.400000000000006 -1.0 0.0 
3 1 5 0.09 -22.400000000000006 1.0 0.0 
4 1 6 -0.65 -23.800000000000004 -0.0 0.0 
5 1 7 0.42 -23.800000000000004 -1.0 0.0 
6 1 3 -0.01 -21.000000000000004 0.0 0.0 
7 1 5 0.09 -21.000000000000004 1.0 0.0 
8 1 5 0.09 -21.000000000000004 -1.0 0.0 
9 1 4 -0.34 -19.600000000000005 0.0 0.0 
10 1 3 -0.01 -18.200000000000006 0.0 0.0 
11 1 5 0.09 -18.200000000000006 1.0 0.0 
12 1 5 0.09 -18.200000000000006 -1.0 0.0 
13 1 3 -0.01 -15.400000000000006 0.0 0.0 
14 1 5 0.09 -15.400000000000006 1.0 0.0 
15 1 5 0.09 -15.400000000000006 -1.0 0.0 
16 1 4 -0.34 -14.000000000000004 0.0 0.0 
17 1 3 -0.01 -12.600000000000005 0.0 0.0 
18 1 5 0.09 -12.600000000000005 1.0 0.0 
19 1 5 0.09 -12.600000000000005 -1.0 0.0 
20 1 3 -0.01 -9.800000000000004 0.0 0.0 
21 1 5 0.09 -9.800000000000004 1.0 0.0 
22 1 5 0.09 -9.800000000000004 -1.0 0.0 
23 1 4 -0.34 -8.400000000000004 0.0 0.0 
24 1 3 -0.01 -7.0000000000000036 0.0 0.0 
25 1 5 0.09 -7.0000000000000036 1.0 0.0 
26 1 5 0.09 -7.0000000000000036 -1.0 0.0 
27 1 3 -0.01 -4.200000000000005 0.0 0.0 
28 1 5 0.09 -4.200000000000005 1.0 0.0 
29 1 5 0.09 -4.200000000000005 -1.0 0.0 
30 1 4 -0.34 -2.8000000000000043 0.0 0.0 
31 1 3 -0.01 -1.4000000000000021 0.0 0.0 
32 1 5 0.09 -1.4000000000000021 1.0 0.0 
33 1 5 0.09 -1.4000000000000021 -1.0 0.0 
34 1 3 -0.01 1.399999999999995 0.0 0.0 
35 1 5 0.09 1.399999999999995 1.0 0.0 
36 1 5 0.09 1.399999999999995 -1.0 0.0 
37 1 4 -0.34 2.799999999999997 0.0 0.0 
38 1 3 -0.01 4.199999999999999 0.0 0.0 
39 1 5 0.09 4.199999999999999 1.0 0.0 
40 1 5 0.09 4.199999999999999 -1.0 0.0 
41 1 3 -0.01 6.9999999999999964 0.0 0.0 
42 1 5 0.09 6.9999999999999964 1.0 0.0 
43 1 5 0.09 6.9999999999999964 -1.0 0.0 
44 1 4 -0.34 8.399999999999999 0.0 0.0 
45 1 3 -0.01 9.8 0.0 0.0 
46 1 5 0.09 9.8 1.0 0.0 
47 1 5 0.09 9.8 -1.0 0.0 
48 1 3 -0.01 12.599999999999998 0.0 0.0 
49 1 5 0.09 12.599999999999998 1.0 0.0 
50 1 5 0.09 12.599999999999998 -1.0 0.0 
51 1 4 -0.34 13.999999999999996 0.0 0.0 
52 1 3 -0.01 15.400000000000002 0.0 0.0 
53 1 5 0.09 15.400000000000002 1.0 0.0 
54 1 5 0.09 15.400000000000002 -1.0 0.0 
55 1 3 -0.01 18.2 0.0 0.0 
56 1 5 0.09 18.2 1.0 0.0 
57 1 5 0.09 18.2 -1.0 0.0 
58 1 4 -0.34 19.599999999999998 0.0 0.0 
59 1 3 -0.01 21.000000000000004 0.0 0.0 
60 1 5 0.09 21.000000000000004 1.0 0.0 
61 1 5 0.09 21.000000000000004 -1.0 0.0 
62 1 3 0.05 22.399999999999995 0.0 0.0 
63 1 5 0.09 22.399999999999995 1.0 0.0 
64 1 5 0.09 22.399999999999995 -1.0 0.0 
65 1 6 -0.65 23.8 0.0 0.0 
66 1 7 0.42 23.8 1.0 0.0 

Bonds

1 2 1 6 
2 2 10 13 
3 2 17 20 
4 2 24 27 
5 2 31 34 
6 2 38 41 
7 2 45 48 
8 2 52 55 
9 2 59 62 
10 5 1 4 
11 4 6 9 
12 4 9 10 
13 4 13 16 
14 4 16 17 
15 4 20 23 
16 4 23 24 
17 4 27 30 
18 4 30 31 
19 4 34 37 
20 4 37 38 
21 4 41 44 
22 4 44 45 
23 4 48 51 
24 4 51 52 
25 4 55 58 
26 4 58 59 
27 5 62 65 
28 4 1 2 
29 4 1 3 
30 4 6 7 
31 4 6 8 
32 4 10 11 
33 4 10 12 
34 4 13 14 
35 4 13 15 
36 4 17 18 
37 4 17 19 
38 4 20 21 
39 4 20 22 
40 4 24 25 
41 4 24 26 
42 4 27 28 
43 4 27 29 
44 4 31 32 
45 4 31 33 
46 4 34 35 
47 4 34 36 
48 4 38 39 
49 4 38 40 
50 4 41 42 
51 4 41 43 
52 4 45 46 
53 4 45 47 
54 4 48 49 
55 4 48 50 
56 4 52 53 
57 4 52 54 
58 4 55 56 
59 4 55 57 
60 4 59 60 
61 4 59 61 
62 4 62 63 
63 4 62 64 
64 6 4 5 
65 6 65 66 

Angles

1 6 2 1 3 
2 7 2 1 4 
3 3 2 1 6 
4 7 3 1 4 
5 3 3 1 6 
6 8 4 1 6 
7 2 1 4 5 
8 3 1 6 7 
9 3 1 6 8 
10 4 1 6 9 
11 6 7 6 8 
12 5 7 6 9 
13 5 8 6 9 
14 9 6 9 10 
15 5 9 10 11 
16 5 9 10 12 
17 4 9 10 13 
18 6 11 10 12 
19 3 11 10 13 
20 3 12 10 13 
21 3 10 13 14 
22 3 10 13 15 
23 4 10 13 16 
24 6 14 13 15 
25 5 14 13 16 
26 5 15 13 16 
27 9 13 16 17 
28 5 16 17 18 
29 5 16 17 19 
30 4 16 17 20 
31 6 18 17 19 
32 3 18 17 20 
33 3 19 17 20 
34 3 17 20 21 
35 3 17 20 22 
36 4 17 20 23 
37 6 21 20 22 
38 5 21 20 23 
39 5 22 20 23 
40 9 20 23 24 
41 5 23 24 25 
42 5 23 24 26 
43 4 23 24 27 
44 6 25 24 26 
45 3 25 24 27 
46 3 26 24 27 
47 3 24 27 28 
48 3 24 27 29 
49 4 24 27 30 
50 6 28 27 29 
51 5 28 27 30 
52 5 29 27 30 
53 9 27 30 31 
54 5 30 31 32 
55 5 30 31 33 
56 4 30 31 34 
57 6 32 31 33 
58 3 32 31 34 
59 3 33 31 34 
60 3 31 34 35 
61 3 31 34 36 
62 4 31 34 37 
63 6 35 34 36 
64 5 35 34 37 
65 5 36 34 37 
66 9 34 37 38 
67 5 37 38 39 
68 5 37 38 40 
69 4 37 38 41 
70 6 39 38 40 
71 3 39 38 41 
72 3 40 38 41 
73 3 38 41 42 
74 3 38 41 43 
75 4 38 41 44 
76 6 42 41 43 
77 5 42 41 44 
78 5 43 41 44 
79 9 41 44 45 
80 5 44 45 46 
81 5 44 45 47 
82 4 44 45 48 
83 6 46 45 47 
84 3 46 45 48 
85 3 47 45 48 
86 3 45 48 49 
87 3 45 48 50 
88 4 45 48 51 
89 6 49 48 50 
90 5 49 48 51 
91 5 50 48 51 
92 9 48 51 52 
93 5 51 52 53 
94 5 51 52 54 
95 4 51 52 55 
96 6 53 52 54 
97 3 53 52 55 
98 3 54 52 55 
99 3 52 55 56 
100 3 52 55 57 
101 4 52 55 58 
102 6 56 55 57 
103 5 56 55 58 
104 5 57 55 58 
105 9 55 58 59 
106 5 58 59 60 
107 5 58 59 61 
108 4 58 59 62 
109 6 60 59 61 
110 3 60 59 62 
111 3 61 59 62 
112 3 59 62 63 
113 3 59 62 64 
114 8 59 62 65 
115 6 63 62 64 
116 7 63 62 65 
117 7 64 62 65 
118 2 62 65 66 

Dihedrals

1 6 6 1 4 5 
2 7 6 1 4 5 
3 8 6 1 4 5 
4 12 4 1 6 9 
5 13 4 1 6 9 
6 14 4 1 6 9 
7 1 1 6 9 10 
8 2 1 6 9 10 
9 3 1 6 9 10 
10 1 6 9 10 13 
11 2 6 9 10 13 
12 3 6 9 10 13 
13 4 9 10 13 16 
14 5 9 10 13 16 
15 1 10 13 16 17 
16 2 10 13 16 17 
17 3 10 13 16 17 
18 1 13 16 17 20 
19 2 13 16 17 20 
20 3 13 16 17 20 
21 4 16 17 20 23 
22 5 16 17 20 23 
23 1 17 20 23 24 
24 2 17 20 23 24 
25 3 17 20 23 24 
26 1 20 23 24 27 
27 2 20 23 24 27 
28 3 20 23 24 27 
29 4 23 24 27 30 
30 5 23 24 27 30 
31 1 24 27 30 31 
32 2 24 27 30 31 
33 3 24 27 30 31 
34 1 27 30 31 34 
35 2 27 30 31 34 
36 3 27 30 31 34 
37 4 30 31 34 37 
38 5 30 31 34 37 
39 1 31 34 37 38 
40 2 31 34 37 38 
41 3 31 34 37 38 
42 1 34 37 38 41 
43 2 34 37 38 41 
44 3 34 37 38 41 
45 4 37 38 41 44 
46 5 37 38 41 44 
47 1 38 41 44 45 
48 2 38 41 44 45 
49 3 38 41 44 45 
50 1 41 44 45 48 
51 2 41 44 45 48 
52 3 41 44 45 48 
53 4 44 45 48 51 
54 5 44 45 48 51 
55 1 45 48 51 52 
56 2 45 48 51 52 
57 3 45 48 51 52 
58 1 48 51 52 55 
59 2 48 51 52 55 
60 3 48 51 52 55 
61 4 51 52 55 58 
62 5 51 52 55 58 
63 1 52 55 58 59 
64 2 52 55 58 59 
65 3 52 55 58 59 
66 1 55 58 59 62 
67 2 55 58 59 62 
68 3 55 58 59 62 
69 12 58 59 62 65 
70 13 58 59 62 65 
71 14 58 59 62 65 
72 6 59 62 65 66 
73 7 59 62 65 66 
74 8 59 62 65 66 
