LAMMPS data file via write_data, version 20 Nov 2019, timestep = 1100

66 atoms
7 atom types
65 bonds
6 bond types
118 angles
9 angle types
74 dihedrals
14 dihedral types

-2.1661999999999999e+01 2.1661999999999999e+01 xlo xhi
-8.1229999999999993e+00 8.1229999999999993e+00 ylo yhi
-8.1229999999999993e+00 8.1229999999999993e+00 zlo zhi

Masses

1 15.9994
2 1.008
3 12.011
4 15.9994
5 1.008
6 15.9994
7 1.008

Pair Coeffs # lj/cut/tip4p/long

1 0.185199 3.1589
2 0 0
3 0.056 3.58141
4 0.1 2.93997
5 0.035 2.38761
6 0.192 3.14487
7 0.046 0.40001

Bond Coeffs # harmonic

1 0 0.9572
2 222.35 1.53
3 308.79 1.1111
4 359.76 1.1415
5 427.715 1.142
6 544.635 0.96

Angle Coeffs # charmm

1 0 104.52 0 0
2 50 109 0 0
3 26.5 110.1 22.53 2.179
4 45 111.5 0 0
5 13.0258 109.4 0 0
6 35.5 109 5.4 1.802
7 55 108.89 0 0
8 75.7 110.1 0 0
9 95 109.7 0 0

Dihedral Coeffs # charmm

1 0.57 1 0 0
2 0.29 2 0 0
3 0.43 3 0 0
4 0.59 1 180 0
5 1.16 2 0 0
6 0.12 1 0 0
7 0.42 2 0 0
8 0.29 3 0 0
9 2.87 1 180 0
10 0.03 2 0 0
11 0.23 3 0 0
12 1.36 1 180 0
13 0.16 2 0 0
14 1.01 3 0 0

Atoms # full

43 1 5 8.9999999999999997e-02 -1.8820745845392546e+00 -3.3218040045180794e+00 1.3180722800243991e+00 0 0 0
32 1 5 8.9999999999999997e-02 -8.7910408818768271e-01 -3.0775747558351468e-01 -1.5870038201484242e+00 0 0 0
42 1 5 8.9999999999999997e-02 -6.8027733751586228e-01 -3.4870594160254802e+00 -1.7080678632933219e-01 0 0 0
8 1 5 8.9999999999999997e-02 -4.8161398909115274e+00 3.7747600392800345e+00 -1.0808392306163632e+00 0 0 0
12 1 5 8.9999999999999997e-02 -3.7303524707327087e+00 5.5835024828085889e+00 -6.1892201134815872e-01 0 0 0
15 1 5 8.9999999999999997e-02 -2.0123522853537117e+00 6.6022861122897227e+00 -2.8407911337691183e+00 0 0 0
19 1 5 8.9999999999999997e-02 -3.1748020864368759e-01 4.4050225996685404e+00 -3.8513107722216824e+00 0 0 0
16 1 4 -3.4000000000000002e-01 -1.4134853096843496e+00 4.7406291048322409e+00 -2.4547222908882387e+00 0 0 0
33 1 5 8.9999999999999997e-02 -6.3932561675821187e-01 1.4790772760254696e+00 -1.0754213342140899e+00 0 0 0
6 1 3 -1.0000000000000000e-02 -4.9520047831881646e+00 4.2070375578004171e+00 -2.1294059382336670e+00 0 0 0
7 1 5 8.9999999999999997e-02 -5.7793048606492690e+00 5.0047780551838965e+00 -2.0500179296060255e+00 0 0 0
9 1 4 -3.4000000000000002e-01 -3.9446228773081091e+00 4.6298749058556856e+00 -2.4681802539064130e+00 0 0 0
10 1 3 -1.0000000000000000e-02 -3.5353057180197389e+00 5.4746973220871320e+00 -1.7387582337077172e+00 0 0 0
13 1 3 -1.0000000000000000e-02 -2.0095929774468138e+00 5.7184607932673366e+00 -2.0929872094018140e+00 0 0 0
14 1 5 8.9999999999999997e-02 -1.5178558567229696e+00 6.2780154334039411e+00 -1.2570139046928892e+00 0 0 0
18 1 5 8.9999999999999997e-02 7.8029703722015925e-02 6.0172735575313245e+00 -3.1482204721055398e+00 0 0 0
1 1 3 5.0000000000000003e-02 -5.2269425351308323e+00 3.0296989949981619e+00 -3.1206223591668181e+00 0 0 0
3 1 5 8.9999999999999997e-02 -6.0898236761194440e+00 2.4306565642506461e+00 -2.6666978026632377e+00 0 0 0
11 1 5 8.9999999999999997e-02 -3.9353575744095628e+00 6.5152474038160308e+00 -2.0890268746479457e+00 0 0 0
17 1 3 -1.0000000000000000e-02 -3.2363272250205055e-01 4.9976839798937176e+00 -2.8550443086206116e+00 0 0 0
31 1 3 -1.0000000000000000e-02 -1.9059952036729669e-01 3.9668863885648875e-01 -1.0790656796721045e+00 0 0 0
2 1 5 8.9999999999999997e-02 -5.7345120624053374e+00 3.4900924582685953e+00 -4.0663275213014485e+00 0 0 0
5 1 7 4.1999999999999998e-01 -3.5507368114138531e+00 2.6982030836870314e+00 -2.9782417850806606e+00 0 0 0
4 1 6 -6.5000000000000002e-01 -4.3197290876509360e+00 2.3150488356230250e+00 -3.3999094606280686e+00 0 0 0
22 1 5 8.9999999999999997e-02 1.7331972551726311e+00 4.5795010085855390e+00 -2.4304785607112840e+00 0 0 0
26 1 5 8.9999999999999997e-02 1.9181559166469599e+00 2.6798283226592567e+00 -3.3466630371134602e+00 0 0 0
29 1 5 8.9999999999999997e-02 1.9092660182356905e-01 7.8017558941878207e-01 -3.3775317118100099e+00 0 0 0
30 1 4 -3.4000000000000002e-01 8.7849208803364387e-01 3.8146084918896872e-01 -1.5969665179911390e+00 0 0 0
21 1 5 8.9999999999999997e-02 6.8890497990722466e-01 4.4336330544694276e+00 -1.0629620670474806e+00 0 0 0
25 1 5 8.9999999999999997e-02 2.0407190200137086e+00 2.4929228602940960e+00 -1.5265838566432017e+00 0 0 0
28 1 5 8.9999999999999997e-02 1.9132689384367543e+00 3.0900417908231481e-01 -2.9428730428459446e+00 0 0 0
20 1 3 -1.0000000000000000e-02 6.8165140929468360e-01 4.1252310429708254e+00 -2.1625362478754275e+00 0 0 0
24 1 3 -1.0000000000000000e-02 1.3511268385612665e+00 2.3822550509831015e+00 -2.4197515715284457e+00 0 0 0
23 1 4 -3.4000000000000002e-01 3.9545151517077576e-01 3.0165874101505756e+00 -2.2438425297963405e+00 0 0 0
27 1 3 -1.0000000000000000e-02 9.9640744463184705e-01 8.6754396678831558e-01 -2.5709959748614746e+00 0 0 0
47 1 5 8.9999999999999997e-02 -6.0625833313806099e-01 -5.3417336871803531e+00 1.5568094259197964e+00 0 0 0
38 1 3 -1.0000000000000000e-02 -9.0751682917097998e-01 -1.5887124056878119e+00 9.7177121826319079e-01 0 0 0
40 1 5 8.9999999999999997e-02 -2.0428482376690726e+00 -1.4142947294232315e+00 6.7663370524622146e-01 0 0 0
39 1 5 8.9999999999999997e-02 -8.4644263863345259e-01 -1.3181379434974680e+00 2.1097731425023944e+00 0 0 0
41 1 3 -1.0000000000000000e-02 -8.3579681260898875e-01 -3.1357674984347663e+00 9.3260020072644945e-01 0 0 0
45 1 3 -1.0000000000000000e-02 2.9799978533227045e-01 -4.6766571366318619e+00 1.7087377047432259e+00 0 0 0
50 1 5 8.9999999999999997e-02 2.4845343514370385e-01 -5.7587074799875113e+00 3.6008285233071744e+00 0 0 0
44 1 4 -3.4000000000000002e-01 4.2479924463290734e-02 -3.5136975804275989e+00 1.6140191320589701e+00 0 0 0
51 1 4 -3.4000000000000002e-01 8.6987161400978674e-01 -4.1420041182458212e+00 3.7394344135262623e+00 0 0 0
54 1 5 8.9999999999999997e-02 7.6488115015117897e-01 -3.0022952156411278e+00 4.9199534807904222e+00 0 0 0
61 1 5 8.9999999999999997e-02 5.2520455046892573e+00 -3.3203175673821872e+00 4.7558336409801933e+00 0 0 0
58 1 4 -3.4000000000000002e-01 3.4926358346215953e+00 -4.2582246870891929e+00 4.3624717377615445e+00 0 0 0
46 1 5 8.9999999999999997e-02 1.0878424333296897e+00 -4.9467408552574081e+00 8.9481305993841520e-01 0 0 0
49 1 5 8.9999999999999997e-02 1.9596454496120970e+00 -5.6105363807559305e+00 2.9280360304423714e+00 0 0 0
53 1 5 8.9999999999999997e-02 1.2318550880470904e+00 -4.6284456295358325e+00 5.6714361968079290e+00 0 0 0
56 1 5 8.9999999999999997e-02 2.8693698760717101e+00 -2.4823315866447113e+00 4.2118334144427791e+00 0 0 0
64 1 5 8.9999999999999997e-02 4.9162354561775921e+00 -2.3436392433272575e+00 2.4475539253868281e+00 0 0 0
62 1 3 5.0000000000000003e-02 4.9815882117722339e+00 -3.4522110963949584e+00 2.5791513487164774e+00 0 0 0
65 1 6 -6.5000000000000002e-01 4.3997954087365674e+00 -3.8873258088740279e+00 1.7059598998657044e+00 0 0 0
37 1 4 -3.4000000000000002e-01 -1.3576102035713470e-02 -1.0235568937867996e+00 5.3699686193095963e-01 0 0 0
48 1 3 -1.0000000000000000e-02 9.5443295443756626e-01 -5.0656256873444327e+00 3.0773176144214274e+00 0 0 0
57 1 5 8.9999999999999997e-02 3.2135352218051625e+00 -3.2994601753901605e+00 5.9102304437570385e+00 0 0 0
52 1 3 -1.0000000000000000e-02 1.3987826747159766e+00 -3.9878146219034356e+00 4.7630389008945802e+00 0 0 0
55 1 3 -1.0000000000000000e-02 2.8497218052808799e+00 -3.4633919942041791e+00 4.8154609094910503e+00 0 0 0
59 1 3 -1.0000000000000000e-02 4.6156717751891785e+00 -3.9836368821955852e+00 4.0132184899860759e+00 0 0 0
60 1 5 8.9999999999999997e-02 5.1845947568459465e+00 -5.0083143117177427e+00 4.1048214815169723e+00 0 0 0
63 1 5 8.9999999999999997e-02 6.1008683525264971e+00 -3.5763729348892008e+00 2.4416763834096131e+00 0 0 0
66 1 7 4.1999999999999998e-01 3.4926410974577875e+00 -3.5837265715589961e+00 1.8014356618717300e+00 0 0 0
34 1 3 -1.0000000000000000e-02 -1.1937517547775445e-01 1.0369395421471400e-01 4.2051801579047393e-01 0 0 0
36 1 5 8.9999999999999997e-02 -9.8191985566721629e-01 7.2269724436962024e-01 8.7558847409477170e-01 0 0 0
35 1 5 8.9999999999999997e-02 9.4176984122401308e-01 5.6128776374390332e-01 7.4166546695259661e-01 0 0 0

Velocities

43 5.5951905605061162e-03 2.2309582248689227e-02 3.3510035224771362e-02
32 -1.3967130716499463e-02 -8.6991129786972328e-03 9.5145643673211714e-03
42 1.0431249185280239e-02 -1.5955581742686433e-02 -1.6849815368104065e-02
8 2.7936349019880964e-02 9.5584498175026421e-03 -3.0652774432477701e-04
12 -2.5366536119923013e-03 -2.6178175490369536e-03 4.5755598836233063e-03
15 -3.7185786766116896e-03 -2.5813834339113294e-02 -1.6788645415678177e-02
19 -2.5036874275926196e-02 1.1552105337105274e-02 -2.9286198043591036e-03
16 1.6624863155666149e-03 -1.5211459882687927e-04 -1.5496257178336508e-03
33 -2.5212181823175926e-04 -1.8411019392156374e-02 9.4456001869913653e-03
6 -1.7789304187511555e-03 -2.9207037592429170e-03 -8.9146226656878092e-03
7 1.2748365909200417e-02 1.3808556617387993e-02 2.0121424636948455e-02
9 4.1414235347883976e-03 7.7274963762926016e-03 -3.6222687936723870e-03
10 8.0425475777487765e-03 3.1425847997772691e-03 -3.3885939350048761e-03
13 7.7702146431189046e-03 7.8995872178670896e-04 1.5155681044046510e-04
14 7.9993426723482981e-03 1.6758552290421773e-02 1.1686226021461812e-02
18 -2.5281568684617003e-02 6.1842375037021906e-03 -3.7047254091609593e-03
1 -6.8033048618706847e-03 -3.8052536841602538e-04 -3.5693807549036657e-04
3 1.9815063313247880e-03 -1.1897215213823357e-03 -1.3247053676811822e-03
11 3.0020261649156457e-02 1.1570720392761490e-02 -6.5484296502548904e-03
17 -2.4731152387192012e-03 2.5266432400335571e-03 -5.9164501457274060e-04
31 1.4887429539868716e-03 -2.2471942133939801e-03 -4.2901555576083808e-03
2 -1.8614681415047057e-02 -9.0254970193687639e-03 -5.6703966274909414e-03
5 1.0861447018828081e-02 -2.4991792861989388e-02 1.3961442073816282e-02
4 -1.8505499538801298e-03 4.7819392967809642e-03 -4.7486148230198137e-04
22 1.8623827952624863e-02 -2.9887196459503058e-02 1.2235696491441664e-02
26 -2.4181507493920153e-02 1.4630377838804842e-02 -1.2146562092390746e-02
29 1.8181177823688881e-02 -3.0031189262279399e-02 1.0286348724357203e-02
30 4.2258475952559622e-03 5.2026615032780752e-04 -3.1164385004099626e-03
21 8.8466995879228193e-03 6.9826554146516795e-04 1.2755978963301046e-02
25 3.8475998761931078e-02 4.3576687799139764e-02 -2.1205714852460755e-02
28 -7.4647669966215573e-03 -1.7808353194609028e-03 1.3613649673339591e-02
20 -2.2168359554588781e-03 2.8283710851337378e-03 4.3846518634854358e-03
24 2.1301339641382044e-03 -5.5421889123812658e-04 -3.0345985096693106e-03
23 -2.1610334704795517e-03 4.0734792571411969e-03 1.8214389659050537e-03
27 2.6164875770336897e-04 -2.9073992545935660e-03 8.8523831485589118e-03
47 -1.0071878755589318e-02 -1.2606160814984132e-02 -1.9800946167806002e-02
38 3.2269608967897586e-04 -5.6376349354210192e-03 -8.5179127475444843e-04
40 1.3764141912297956e-02 1.1357792686519916e-02 -2.0442979483503737e-02
39 1.1585823691424635e-02 9.4167480911573956e-04 -1.0351740059855502e-02
41 -3.5022759182179088e-03 -1.1889505880130343e-03 9.7906057282883124e-03
45 6.5107751409187694e-04 -2.3649988004263520e-03 -7.0620494104004852e-03
50 -1.6590639978495386e-02 -4.9274149438644100e-03 -5.4636098230273428e-03
44 -1.8648612558104277e-03 3.0422227082625149e-03 -4.6715373574849733e-04
51 -2.0355766007901788e-03 2.2824826110064650e-05 5.9603073216226250e-03
54 1.7014420486611385e-02 -1.1177693645474300e-02 2.0350701785692798e-02
61 -4.4278754332006736e-03 -2.2123446498280946e-02 -4.9312574357551018e-03
58 -7.4300883717283146e-04 -2.2093662656027758e-03 3.0252972502928040e-03
46 -4.7173755615911748e-03 4.2261256663276812e-03 -1.5922254351044031e-02
49 1.5219861539640693e-02 -1.1123702015024668e-04 1.1433227252048006e-02
53 1.3676969120529082e-02 5.0604072909243110e-03 2.3758453543951001e-02
56 -1.5686011249622964e-02 6.3598921809198076e-03 1.9100525582366162e-02
64 -2.9201851850733179e-02 1.2289085373737796e-02 1.5040432464601607e-02
62 -1.0136742567830790e-02 8.4431944826199260e-03 1.2585964486871821e-03
65 2.7477766519708549e-03 -2.2747650229655181e-03 9.5088955158628904e-03
37 -3.1929025400614496e-03 2.3753267936052919e-04 -7.6520973883402489e-03
48 2.8836662381670308e-03 -7.5219987676986583e-03 3.1856068885070103e-03
57 1.6737680400415945e-02 -4.6153857603401877e-02 1.1091273186441685e-02
52 -5.4031052619366998e-03 4.4404914170134493e-03 1.6566086092005263e-03
55 -2.9537135318967445e-04 -6.0345784612837261e-03 -3.9312878848523193e-03
59 1.1908578149450381e-03 -9.7610355497883116e-03 -3.2263263449660348e-03
60 8.7106283587725462e-03 -9.0807538104917939e-03 -2.8304476528280862e-02
63 -8.6790389579917814e-03 4.2949293743615849e-02 -2.2502352586980367e-02
66 1.3156450365035252e-02 1.4678651393245031e-02 -4.4764412819515761e-03
34 1.2254920872784491e-04 2.2925389307814096e-03 1.2749784892149884e-03
36 -1.6854152436442983e-03 6.9599062239129720e-04 3.0001806131816867e-03
35 -1.1915031240542167e-02 -2.1695405257738675e-02 -2.9622195430035202e-02

Bonds

1 4 16 17
2 4 6 9
3 4 6 7
4 4 6 8
5 4 9 10
6 2 10 13
7 4 10 11
8 4 10 12
9 4 13 16
10 4 13 14
11 4 13 15
12 2 1 6
13 5 1 4
14 4 1 2
15 4 1 3
16 2 17 20
17 4 17 18
18 4 17 19
19 2 31 34
20 4 31 32
21 4 31 33
22 6 4 5
23 4 30 31
24 4 20 23
25 4 20 21
26 4 20 22
27 2 24 27
28 4 24 25
29 4 24 26
30 4 23 24
31 4 27 30
32 4 27 28
33 4 27 29
34 2 38 41
35 4 38 39
36 4 38 40
37 4 41 44
38 4 41 42
39 4 41 43
40 2 45 48
41 4 45 46
42 4 45 47
43 4 44 45
44 4 51 52
45 4 58 59
46 5 62 65
47 4 62 63
48 4 62 64
49 6 65 66
50 4 37 38
51 4 48 51
52 4 48 49
53 4 48 50
54 2 52 55
55 4 52 53
56 4 52 54
57 4 55 58
58 4 55 56
59 4 55 57
60 2 59 62
61 4 59 60
62 4 59 61
63 4 34 37
64 4 34 35
65 4 34 36

Angles

1 9 13 16 17
2 3 1 6 7
3 3 1 6 8
4 4 1 6 9
5 6 7 6 8
6 5 7 6 9
7 5 8 6 9
8 9 6 9 10
9 5 9 10 11
10 5 9 10 12
11 4 9 10 13
12 6 11 10 12
13 3 11 10 13
14 3 12 10 13
15 3 10 13 14
16 3 10 13 15
17 4 10 13 16
18 6 14 13 15
19 5 14 13 16
20 5 15 13 16
21 6 2 1 3
22 7 2 1 4
23 3 2 1 6
24 7 3 1 4
25 3 3 1 6
26 8 4 1 6
27 5 16 17 18
28 5 16 17 19
29 4 16 17 20
30 6 18 17 19
31 3 18 17 20
32 3 19 17 20
33 5 30 31 32
34 5 30 31 33
35 4 30 31 34
36 6 32 31 33
37 3 32 31 34
38 3 33 31 34
39 2 1 4 5
40 9 27 30 31
41 3 17 20 21
42 3 17 20 22
43 4 17 20 23
44 6 21 20 22
45 5 21 20 23
46 5 22 20 23
47 5 23 24 25
48 5 23 24 26
49 4 23 24 27
50 6 25 24 26
51 3 25 24 27
52 3 26 24 27
53 9 20 23 24
54 3 24 27 28
55 3 24 27 29
56 4 24 27 30
57 6 28 27 29
58 5 28 27 30
59 5 29 27 30
60 5 37 38 39
61 5 37 38 40
62 4 37 38 41
63 6 39 38 40
64 3 39 38 41
65 3 40 38 41
66 3 38 41 42
67 3 38 41 43
68 4 38 41 44
69 6 42 41 43
70 5 42 41 44
71 5 43 41 44
72 5 44 45 46
73 5 44 45 47
74 4 44 45 48
75 6 46 45 47
76 3 46 45 48
77 3 47 45 48
78 9 41 44 45
79 9 48 51 52
80 9 55 58 59
81 3 59 62 63
82 3 59 62 64
83 8 59 62 65
84 6 63 62 64
85 7 63 62 65
86 7 64 62 65
87 2 62 65 66
88 9 34 37 38
89 3 45 48 49
90 3 45 48 50
91 4 45 48 51
92 6 49 48 50
93 5 49 48 51
94 5 50 48 51
95 5 51 52 53
96 5 51 52 54
97 4 51 52 55
98 6 53 52 54
99 3 53 52 55
100 3 54 52 55
101 3 52 55 56
102 3 52 55 57
103 4 52 55 58
104 6 56 55 57
105 5 56 55 58
106 5 57 55 58
107 5 58 59 60
108 5 58 59 61
109 4 58 59 62
110 6 60 59 61
111 3 60 59 62
112 3 61 59 62
113 3 31 34 35
114 3 31 34 36
115 4 31 34 37
116 6 35 34 36
117 5 35 34 37
118 5 36 34 37

Dihedrals

1 1 13 16 17 20
2 2 13 16 17 20
3 3 13 16 17 20
4 1 1 6 9 10
5 2 1 6 9 10
6 3 1 6 9 10
7 1 6 9 10 13
8 2 6 9 10 13
9 3 6 9 10 13
10 4 9 10 13 16
11 5 9 10 13 16
12 1 10 13 16 17
13 2 10 13 16 17
14 3 10 13 16 17
15 6 6 1 4 5
16 7 6 1 4 5
17 8 6 1 4 5
18 12 4 1 6 9
19 13 4 1 6 9
20 14 4 1 6 9
21 4 16 17 20 23
22 5 16 17 20 23
23 4 30 31 34 37
24 5 30 31 34 37
25 1 27 30 31 34
26 2 27 30 31 34
27 3 27 30 31 34
28 1 17 20 23 24
29 2 17 20 23 24
30 3 17 20 23 24
31 4 23 24 27 30
32 5 23 24 27 30
33 1 20 23 24 27
34 2 20 23 24 27
35 3 20 23 24 27
36 1 24 27 30 31
37 2 24 27 30 31
38 3 24 27 30 31
39 4 37 38 41 44
40 5 37 38 41 44
41 1 38 41 44 45
42 2 38 41 44 45
43 3 38 41 44 45
44 4 44 45 48 51
45 5 44 45 48 51
46 1 41 44 45 48
47 2 41 44 45 48
48 3 41 44 45 48
49 1 48 51 52 55
50 2 48 51 52 55
51 3 48 51 52 55
52 1 55 58 59 62
53 2 55 58 59 62
54 3 55 58 59 62
55 6 59 62 65 66
56 7 59 62 65 66
57 8 59 62 65 66
58 1 34 37 38 41
59 2 34 37 38 41
60 3 34 37 38 41
61 1 45 48 51 52
62 2 45 48 51 52
63 3 45 48 51 52
64 4 51 52 55 58
65 5 51 52 55 58
66 1 52 55 58 59
67 2 52 55 58 59
68 3 52 55 58 59
69 12 58 59 62 65
70 13 58 59 62 65
71 14 58 59 62 65
72 1 31 34 37 38
73 2 31 34 37 38
74 3 31 34 37 38
