LAMMPS data file via write_data, version 15 Sep 2022, timestep = 10000

66 atoms
7 atom types
65 bonds
6 bond types
118 angles
9 angle types
74 dihedrals
14 dihedral types

-21.64201909795004 21.64201909795004 xlo xhi
-8.115757161731125 8.115757161731125 ylo yhi
-8.115757161731125 8.115757161731125 zlo zhi

Masses

1 15.9994
2 1.008
3 12.011
4 15.9994
5 1.008
6 15.9994
7 1.008

Pair Coeffs # lj/cut/tip4p/long

1 0.185199 3.1589
2 0 0
3 0.056 3.58141
4 0.1 2.93997
5 0.035 2.38761
6 0.192 3.14487
7 0.046 0.40001

Bond Coeffs # harmonic

1 0 0.9572
2 222.35 1.53
3 308.79 1.1111
4 359.76 1.1415
5 427.715 1.142
6 544.635 0.96

Angle Coeffs # charmm

1 0 104.52 0 0
2 50 109 0 0
3 26.5 110.1 22.53 2.179
4 45 111.5 0 0
5 13.0258 109.4 0 0
6 35.5 109 5.4 1.802
7 55 108.89 0 0
8 75.7 110.1 0 0
9 95 109.7 0 0

Dihedral Coeffs # charmm

1 0.57 1 0 0
2 0.29 2 0 0
3 0.43 3 0 0
4 0.59 1 180 0
5 1.16 2 0 0
6 0.12 1 0 0
7 0.42 2 0 0
8 0.29 3 0 0
9 2.87 1 180 0
10 0.03 2 0 0
11 0.23 3 0 0
12 1.36 1 180 0
13 0.16 2 0 0
14 1.01 3 0 0

Atoms # full

26 1 5 0.09 -2.3966565665468873 0.9488559795308855 0.7531615784581679 0 0 0
22 1 5 0.09 -0.662881197535685 3.6588296008210963 -0.781474931015976 0 0 0
20 1 3 -0.01 -1.3294484492662473 2.788703055594471 -0.4498825689035581 0 0 0
4 1 6 -0.65 -6.150521604761962 3.188394511655975 -1.482503597569636 0 0 0
5 1 7 0.42 -5.367044891654596 3.3291035475923207 -0.9342651057026701 0 0 0
23 1 4 -0.34 -0.920558910906834 2.3496822316672934 0.5697987183308093 0 0 0
19 1 5 0.09 -3.0912978121966677 3.9452340929543173 -1.3011382424708338 0 0 0
24 1 3 -0.01 -1.3340303053215279 1.3137307478001585 0.7647012266619375 0 0 0
18 1 5 0.09 -3.4941551040630214 2.6380334258354683 0.03998212192772762 0 0 0
2 1 5 0.09 -7.640194514753627 4.211993570427288 -1.358357915008305 0 0 0
13 1 3 -0.01 -3.1968618417687034 4.5338432894848 1.2495174993513722 0 0 0
21 1 5 0.09 -1.3766357916685856 2.2641990309994315 -1.4900862623935813 0 0 0
14 1 5 0.09 -2.7748015144211635 5.536119158682173 1.561689522970831 0 0 0
16 1 4 -0.34 -2.777153090468372 4.48214942571325 0.1979027524721535 0 0 0
17 1 3 -0.01 -2.784676106732188 3.460708020900313 -0.3316829564157486 0 0 0
11 1 5 0.09 -5.082674333620609 4.04756440539368 2.2913314806649354 0 0 0
12 1 5 0.09 -5.048788746018038 5.6879700584679975 1.5630654754777702 0 0 0
8 1 5 0.09 -6.730474912777571 3.3696153401557245 1.371803506304694 0 0 0
10 1 3 -0.01 -4.777444675902635 4.6258185255286834 1.3334397299742922 0 0 0
6 1 3 -0.01 -6.500566763739365 4.04964909536274 0.48991706913400784 0 0 0
9 1 4 -0.34 -5.374630078315958 4.446643057208175 0.3771141405447667 0 0 0
7 1 5 0.09 -7.192676171676355 4.9732993122295275 0.6112801882837813 0 0 0
15 1 5 0.09 -2.9463737903697966 3.8174437276560047 2.1107798700448566 0 0 0
3 1 5 0.09 -7.631552021072529 2.579747762248718 -0.5450895218294747 0 0 0
1 1 3 0.05 -7.01015262213893 3.4682137472693895 -0.8200635873503982 0 0 0
25 1 5 0.09 -1.0859381117329046 1.416626449949927 1.9081865631809318 0 0 0
27 1 3 -0.01 -0.40462622505624235 0.21348886707271075 0.17285028194014151 0 0 0
39 1 5 0.09 -0.5789397178659131 -3.704487652904959 -1.9467185989801876 0 0 0
35 1 5 0.09 -0.039863789881592455 -0.8353410314968392 -2.9973350595981496 0 0 0
29 1 5 0.09 -1.0074717385150755 -0.7206811022069233 -0.14057823303060024 0 0 0
30 1 4 -0.34 -0.052511254435774556 0.5071792226921052 -0.8781388367162823 0 0 0
48 1 3 -0.01 4.7744734921071394 -3.8811529568115644 -1.6859095877897352 0 0 0
51 1 4 -0.34 4.8719558052737035 -3.4575882456615146 -0.6089884887378129 0 0 0
50 1 5 0.09 4.938471073819776 -3.1991943760259263 -2.612323193183827 0 0 0
65 1 6 -0.65 2.917706742347456 -2.9902130722731655 3.211481537117094 0 0 0
43 1 5 0.09 1.6506881555449655 -4.337095681345765 -3.4708544789368103 0 0 0
38 1 3 -0.01 0.34531825142169204 -3.0949163565564515 -2.32502082932281 0 0 0
42 1 5 0.09 1.1946532549123996 -5.104577611300762 -1.9766035246274871 0 0 0
47 1 5 0.09 3.439314236866408 -5.145276250569223 -2.6134569470779794 0 0 0
44 1 4 -0.34 2.5207883406216647 -3.619772725335889 -1.9934655078925267 0 0 0
45 1 3 -0.01 3.3521408397594263 -4.404278754797123 -1.693122496340073 0 0 0
41 1 3 -0.01 1.5701651940560222 -4.097781786024203 -2.323227061930093 0 0 0
37 1 4 -0.34 0.30784492070596897 -2.152052824352839 -1.6977188264117684 0 0 0
64 1 5 0.09 1.4022224089292417 -2.4445233724272493 2.4066213257998377 0 0 0
46 1 5 0.09 3.157396594740249 -5.14829864341496 -0.8599742536952479 0 0 0
49 1 5 0.09 5.449622440276572 -4.824570139098816 -1.8101683293427309 0 0 0
56 1 5 0.09 4.511046001756942 -0.6068793452522566 -0.14813757076044298 0 0 0
53 1 5 0.09 6.171988519178162 -2.0328540927953673 -1.2115543877988404 0 0 0
57 1 5 0.09 5.7654385896640505 -0.8355208015267426 1.1172958440747724 0 0 0
62 1 3 0.05 2.4711433743038396 -2.8425083493790675 2.203947914941751 0 0 0
34 1 3 -0.01 0.7216110518852626 -1.1478018947252162 -2.2267314265215106 0 0 0
36 1 5 0.09 1.6968014785745857 -1.1496476650342953 -2.9095552320087856 0 0 0
33 1 5 0.09 1.7718666484465178 -0.3063905095322686 -0.47465977827592537 0 0 0
63 1 5 0.09 2.495905674714374 -3.8523144065166424 1.650694029504384 0 0 0
31 1 3 -0.01 0.948848194963827 -0.009640601857927929 -1.2437530291828338 0 0 0
66 1 7 0.42 3.865627331993516 -2.886300932851588 3.1227592095384744 0 0 0
32 1 5 0.09 1.4331101606086682 0.8970316788812033 -1.7945618247204735 0 0 0
60 1 5 0.09 2.8251317965962803 -0.7938590686901964 1.3715915682850408 0 0 0
28 1 5 0.09 0.17219902731024325 -0.21363348330785298 1.1193174642009065 0 0 0
61 1 5 0.09 2.769365425443171 -2.3930210539869563 0.30700836821012056 0 0 0
52 1 3 -0.01 5.619360406168545 -2.5314082335196275 -0.3406221998482255 0 0 0
54 1 5 0.09 6.4285303739214354 -2.874495739606031 0.2975079148750097 0 0 0
55 1 3 -0.01 4.918295105728079 -1.4262918107339342 0.5372046826995324 0 0 0
58 1 4 -0.34 4.353680792020042 -1.9125978895461202 1.4339459854794339 0 0 0
59 1 3 -0.01 3.1701637650558476 -1.9051255403907086 1.3094194887355968 0 0 0
40 1 5 0.09 0.24593363038380586 -2.898209722960764 -3.4573426072923605 0 0 0

Velocities

26 0.0020098628678222505 0.004507815975977247 -0.02242656558933986
22 -0.01926663697422813 0.006725007273257138 0.005630558816984602
20 -0.0032903150830063377 -0.003352421158258657 -0.0012512753848061106
4 0.002377372056175618 -0.0019690340010182854 -0.0002329235652320251
5 -0.0024485320711810405 0.011159600878966983 0.005119116369840856
23 0.0032114377726618812 0.002304956120636713 0.0022039685181099835
19 -0.014019179746978581 0.028614262692187756 -0.00198932004782403
24 -0.0005020326259805865 0.0005494174952256709 -0.0013652731111994981
18 -0.00240668154739643 -0.01320574389243426 0.003791730878955655
2 0.03836600153432095 0.019991712022313216 -0.035616361471698055
13 -0.0010696916578653449 0.0008459120030817735 -0.005876454962913269
21 0.009987534909577434 -0.024111202522485695 0.011262241947925283
14 0.002734619940791827 0.005709725861076762 0.0036233932548487328
16 -0.0024367875218550025 0.0009629637477363905 -0.004670897733421976
17 -0.0017447088124759905 -0.0012896410202143597 0.009124356953417567
11 -0.008395839705122154 -0.006792981228430296 -0.01301398370925798
12 0.030233069083703008 0.007034967988313268 0.004447600654807442
8 0.010032305273299465 0.0015662002947326214 0.0192593591456483
10 -0.005284457111428525 0.0012060186744753355 0.0076370843826742705
6 0.0024827980279499276 -2.7868608538367956e-05 -0.00203789575332755
9 0.010690059656985475 -0.0005773083205800381 -0.004712492615907716
7 -0.019586435031665104 -0.030894181003494003 -0.008293995853713402
15 0.0037928720761660965 0.027009185257693573 0.016053621704037173
3 0.0133541537854899 0.007217499113798177 -0.01666054681551335
1 0.0021519111299127653 -0.0012179459229464081 0.002762782746861751
25 -0.011660101438622556 0.01445108559351869 0.0030949134021326344
27 -0.012011464580052353 0.00013926021344426762 -0.006964402194163609
39 0.0025198212382841582 0.006594383997998913 -0.021827188663579918
35 -0.00959479307548166 -0.0015305863157046365 0.013125924827284367
29 0.01604681148745772 0.00378094664042554 0.0038730243301677344
30 -0.004398485627398462 -0.003629469974199221 0.0009984172452422945
48 -0.006482714586664029 0.0009978110664924482 -0.0019730849904677386
51 0.0036622554454433876 0.0017766992054069491 0.006765977884147147
50 -0.004288504335296735 -0.01129422449672298 -0.014707863211433402
65 0.001157123422862092 -0.005806804102739508 0.00167011619495222
43 -0.010232479525847353 0.007949425483730675 -0.007959800057361886
38 0.0013132541247236876 0.008079785393040963 0.001967513442486524
42 0.012857226963347035 0.005601197448664839 0.03056286110896091
47 0.023414642556129073 0.02359690280514223 -0.0013941655734366308
44 0.004656280415174011 -0.00044055246309336463 -0.006638831193419254
45 -0.0019006575291427201 0.0006722018500628778 -0.003675176899719211
41 -0.0033278114365194954 -0.00030676270198072683 0.006661598494258531
37 -0.0010332559644548034 0.0018287475043592262 0.002833222699847188
64 0.0025435302153871595 0.001157385384138228 -0.004617676384755684
46 -0.010535309488683827 -0.004723664770768448 -0.0024128605766240495
49 -0.014512622282160426 0.003127443764057144 -0.008480049438803481
56 -0.03902929540722197 0.0022855609117599265 -0.001750521650496797
53 0.012058553505110193 0.003950961565028917 0.014630852798045381
57 -0.01706107422100976 0.00843959699458449 -0.01089145131363533
62 -0.0013904452080656497 -0.0010441901907416345 0.00680675860196
34 -0.002605539254547602 -0.0035828003392912805 -0.0015993544880081683
36 -0.002171614386487239 -0.00443320816990282 0.012571659117326679
33 0.02912191686666099 0.023910793722609215 0.00765453946506543
63 -0.023520645388974415 0.0017547547399046626 -0.03932365978672046
31 0.006124084739880247 -0.004175699712752419 -0.0019776883864764225
66 0.006992586100471034 -0.0042364163759951645 -0.002691993207394899
32 0.004500445406590919 0.013459337889940071 -0.01173833317647425
60 0.009702829426516077 -0.006535931531033527 -0.018503592427221376
28 -0.012563193851954705 -0.007317039303369332 -0.00536268024562369
61 0.03987523154463394 0.017777689341628294 0.004990768264336993
52 0.002672261212663262 0.004876974315151723 -0.002674975615088638
54 0.001452107194412905 -0.003013518426953437 -0.014690726644396895
55 -0.007651757490622854 -0.006845057364434721 -0.002456879751738189
58 0.000430233236866989 -0.004667278775562008 0.002463892328593319
59 0.003047745811169273 0.006646946287983716 0.004661587866477059
40 0.01012331686410435 -0.0029950710054086915 0.0012852761379954659

Bonds

1 4 20 23
2 4 20 21
3 4 20 22
4 6 4 5
5 4 23 24
6 2 24 27
7 4 24 25
8 4 24 26
9 4 13 16
10 4 13 14
11 4 13 15
12 4 16 17
13 2 17 20
14 4 17 18
15 4 17 19
16 2 10 13
17 4 10 11
18 4 10 12
19 4 6 9
20 4 6 7
21 4 6 8
22 4 9 10
23 2 1 6
24 5 1 4
25 4 1 2
26 4 1 3
27 4 27 30
28 4 27 28
29 4 27 29
30 4 30 31
31 4 48 51
32 4 48 49
33 4 48 50
34 4 51 52
35 6 65 66
36 2 38 41
37 4 38 39
38 4 38 40
39 4 44 45
40 2 45 48
41 4 45 46
42 4 45 47
43 4 41 44
44 4 41 42
45 4 41 43
46 4 37 38
47 5 62 65
48 4 62 63
49 4 62 64
50 4 34 37
51 4 34 35
52 4 34 36
53 2 31 34
54 4 31 32
55 4 31 33
56 2 52 55
57 4 52 53
58 4 52 54
59 4 55 58
60 4 55 56
61 4 55 57
62 4 58 59
63 2 59 62
64 4 59 60
65 4 59 61

Angles

1 3 17 20 21
2 3 17 20 22
3 4 17 20 23
4 6 21 20 22
5 5 21 20 23
6 5 22 20 23
7 2 1 4 5
8 9 20 23 24
9 5 23 24 25
10 5 23 24 26
11 4 23 24 27
12 6 25 24 26
13 3 25 24 27
14 3 26 24 27
15 3 10 13 14
16 3 10 13 15
17 4 10 13 16
18 6 14 13 15
19 5 14 13 16
20 5 15 13 16
21 9 13 16 17
22 5 16 17 18
23 5 16 17 19
24 4 16 17 20
25 6 18 17 19
26 3 18 17 20
27 3 19 17 20
28 5 9 10 11
29 5 9 10 12
30 4 9 10 13
31 6 11 10 12
32 3 11 10 13
33 3 12 10 13
34 3 1 6 7
35 3 1 6 8
36 4 1 6 9
37 6 7 6 8
38 5 7 6 9
39 5 8 6 9
40 9 6 9 10
41 6 2 1 3
42 7 2 1 4
43 3 2 1 6
44 7 3 1 4
45 3 3 1 6
46 8 4 1 6
47 3 24 27 28
48 3 24 27 29
49 4 24 27 30
50 6 28 27 29
51 5 28 27 30
52 5 29 27 30
53 9 27 30 31
54 3 45 48 49
55 3 45 48 50
56 4 45 48 51
57 6 49 48 50
58 5 49 48 51
59 5 50 48 51
60 9 48 51 52
61 2 62 65 66
62 5 37 38 39
63 5 37 38 40
64 4 37 38 41
65 6 39 38 40
66 3 39 38 41
67 3 40 38 41
68 9 41 44 45
69 5 44 45 46
70 5 44 45 47
71 4 44 45 48
72 6 46 45 47
73 3 46 45 48
74 3 47 45 48
75 3 38 41 42
76 3 38 41 43
77 4 38 41 44
78 6 42 41 43
79 5 42 41 44
80 5 43 41 44
81 9 34 37 38
82 3 59 62 63
83 3 59 62 64
84 8 59 62 65
85 6 63 62 64
86 7 63 62 65
87 7 64 62 65
88 3 31 34 35
89 3 31 34 36
90 4 31 34 37
91 6 35 34 36
92 5 35 34 37
93 5 36 34 37
94 5 30 31 32
95 5 30 31 33
96 4 30 31 34
97 6 32 31 33
98 3 32 31 34
99 3 33 31 34
100 5 51 52 53
101 5 51 52 54
102 4 51 52 55
103 6 53 52 54
104 3 53 52 55
105 3 54 52 55
106 3 52 55 56
107 3 52 55 57
108 4 52 55 58
109 6 56 55 57
110 5 56 55 58
111 5 57 55 58
112 9 55 58 59
113 5 58 59 60
114 5 58 59 61
115 4 58 59 62
116 6 60 59 61
117 3 60 59 62
118 3 61 59 62

Dihedrals

1 1 17 20 23 24
2 2 17 20 23 24
3 3 17 20 23 24
4 1 20 23 24 27
5 2 20 23 24 27
6 3 20 23 24 27
7 4 23 24 27 30
8 5 23 24 27 30
9 1 10 13 16 17
10 2 10 13 16 17
11 3 10 13 16 17
12 1 13 16 17 20
13 2 13 16 17 20
14 3 13 16 17 20
15 4 16 17 20 23
16 5 16 17 20 23
17 4 9 10 13 16
18 5 9 10 13 16
19 1 1 6 9 10
20 2 1 6 9 10
21 3 1 6 9 10
22 1 6 9 10 13
23 2 6 9 10 13
24 3 6 9 10 13
25 6 6 1 4 5
26 7 6 1 4 5
27 8 6 1 4 5
28 12 4 1 6 9
29 13 4 1 6 9
30 14 4 1 6 9
31 1 24 27 30 31
32 2 24 27 30 31
33 3 24 27 30 31
34 1 27 30 31 34
35 2 27 30 31 34
36 3 27 30 31 34
37 1 45 48 51 52
38 2 45 48 51 52
39 3 45 48 51 52
40 1 48 51 52 55
41 2 48 51 52 55
42 3 48 51 52 55
43 4 37 38 41 44
44 5 37 38 41 44
45 1 41 44 45 48
46 2 41 44 45 48
47 3 41 44 45 48
48 4 44 45 48 51
49 5 44 45 48 51
50 1 38 41 44 45
51 2 38 41 44 45
52 3 38 41 44 45
53 1 34 37 38 41
54 2 34 37 38 41
55 3 34 37 38 41
56 6 59 62 65 66
57 7 59 62 65 66
58 8 59 62 65 66
59 1 31 34 37 38
60 2 31 34 37 38
61 3 31 34 37 38
62 4 30 31 34 37
63 5 30 31 34 37
64 4 51 52 55 58
65 5 51 52 55 58
66 1 52 55 58 59
67 2 52 55 58 59
68 3 52 55 58 59
69 1 55 58 59 62
70 2 55 58 59 62
71 3 55 58 59 62
72 12 58 59 62 65
73 13 58 59 62 65
74 14 58 59 62 65
