LAMMPS data file via write_data, version 29 Sep 2021, timestep = 200000

4948 atoms
5 atom types
2432 bonds
1 bond types
1216 angles
1 angle types

-16.16 16.16 xlo xhi
-16.16 16.16 ylo yhi
-40 40 zlo zhi

Masses

1 15.9994
2 1.008
3 28.99
4 35.453
5 26.9815

Pair Coeffs # lj/cut/tip4p/long

1 0.185199 3.1589
2 0 0
3 0.0469 2.4299
4 0.15 4.0447
5 11.697 2.574

Bond Coeffs # harmonic

1 0 0.9572

Angle Coeffs # harmonic

1 0 104.52

Atoms # full

165 0 5 0 -15.631021815880482 -15.566259626940376 -25.509015017369443 -1 -6 0
421 0 5 0 -15.655592915770876 -15.598988093096878 -21.567693331148096 -1 -6 0
167 0 5 0 -13.602510453164625 -15.541067646572632 -23.505871448577164 -1 -6 0
169 0 5 0 -11.671440544919866 -15.573055622012347 -25.483883564221 -1 -6 0
425 0 5 0 -11.638025073613315 -15.609227346784385 -21.49006021803087 -1 -6 0
171 0 5 0 -9.638807961256672 -15.604882487413558 -23.441317515923075 -1 -6 0
168 0 5 0 -15.664820366372682 -13.55495386918102 -23.60396581885218 -1 -6 0
422 0 5 0 -13.711120440753506 -13.57710602727734 -21.52967352464661 -1 -6 0
166 0 5 0 -13.642749350162253 -13.55829468395363 -25.571895260789436 -1 -6 0
172 0 5 0 -11.635809794353802 -13.585218195050427 -23.445074576128366 -1 -6 0
426 0 5 0 -9.684453632168191 -13.587882639621329 -21.49687419031894 -1 -6 0
170 0 5 0 -9.543396860498474 -13.54038874128784 -25.418159347061835 -1 -6 0
457 0 5 0 -11.660412363273698 -11.599720629700467 -21.456682701118996 -1 -6 0
453 0 5 0 -15.699590527588663 -11.537228958491426 -21.507898163851216 -1 -6 0
197 0 5 0 -15.665505340029844 -11.49881102494975 -25.571217987251572 -1 -6 0
199 0 5 0 -13.578023954045756 -11.57189388667662 -23.565457572962618 -1 -6 0
201 0 5 0 -11.601947575831053 -11.547304568732182 -25.630531854829606 -1 -6 0
203 0 5 0 -9.622334551603062 -11.572691338940585 -23.386784444346333 -1 -6 0
200 0 5 0 -15.593895835920323 -9.561564185096973 -23.428970908590234 -1 -6 0
198 0 5 0 -13.566055869324062 -9.556272467967265 -25.546026106859884 -1 -6 0
454 0 5 0 -13.590261555234948 -9.524753539767794 -21.52850091397178 -1 -6 0
204 0 5 0 -11.623460819760085 -9.531804383838736 -23.553740464005926 -1 -6 0
202 0 5 0 -9.627367670829324 -9.472558862932933 -25.559080973061718 -1 -6 0
458 0 5 0 -9.554755647286504 -9.49187090988273 -21.510313487053093 -1 -6 0
429 0 5 0 -7.667311344700112 -15.592901076933678 -21.419719319152218 -1 -6 0
173 0 5 0 -7.5965743878125345 -15.601567355943523 -25.37038351830597 -1 -6 0
175 0 5 0 -5.62502293141744 -15.57292756823115 -23.42547834197556 -1 -6 0
433 0 5 0 -3.4933708145040496 -15.571040335183016 -21.535144685527186 -1 -6 0
177 0 5 0 -3.510302115675971 -15.537064319188909 -25.432764985453876 -1 -6 0
179 0 5 0 -1.5302388989427373 -15.583355393973 -23.47431233076179 -1 -6 0
176 0 5 0 -7.621510871697478 -13.625445576251883 -23.417859462425536 -1 -6 0
430 0 5 0 -5.603796339461486 -13.527828950954566 -21.4309451062549 -1 -6 0
174 0 5 0 -5.67018543176145 -13.58292627128406 -25.556396933030978 -1 -6 0
180 0 5 0 -3.5935579245110865 -13.564833219437672 -23.452156207582195 -1 -6 0
178 0 5 0 -1.4718611371235943 -13.58271223821921 -25.468934363681154 -1 -6 0
434 0 5 0 -1.536169340799189 -13.591487153844643 -21.458109775520427 -1 -6 0
209 0 5 0 -3.6726513408264156 -11.61773022041018 -25.387709687642847 -1 -6 0
461 0 5 0 -7.604957908684193 -11.519386318864862 -21.43689161600612 -1 -6 0
205 0 5 0 -7.593604324147849 -11.51067340785538 -25.45215938556337 -1 -6 0
207 0 5 0 -5.661859381172941 -11.611162137499848 -23.448740105723505 -1 -6 0
465 0 5 0 -3.552483449061824 -11.493077231778216 -21.450686861183417 -1 -6 0
211 0 5 0 -1.5457029507005675 -11.564555577609461 -23.47359721943945 -1 -6 0
208 0 5 0 -7.643484418812899 -9.520979535815679 -23.475502749628337 -1 -6 0
206 0 5 0 -5.649350613533954 -9.473225264234038 -25.415846776604116 -1 -6 0
462 0 5 0 -5.597951255156395 -9.540465921064198 -21.53303985275033 -1 -6 0
212 0 5 0 -3.6020389835076854 -9.581149518972808 -23.484603006263338 -1 -6 0
210 0 5 0 -1.624373660149241 -9.68497002784547 -25.535185182862335 -1 -6 0
466 0 5 0 -1.5539050678712152 -9.499623934220763 -21.51726845953617 -1 -6 0
181 0 5 0 0.46766546480644866 -15.692616998284086 -25.509315810900404 -1 -6 0
437 0 5 0 0.6267558292181001 -15.672509713882121 -21.48808559684984 -1 -6 0
183 0 5 0 2.514684446896935 -15.671197576787705 -23.5370450723444 -1 -6 0
185 0 5 0 4.424753502046651 -15.614197613598897 -25.54516562531651 -1 -6 0
441 0 5 0 4.509195262199563 -15.583985430955114 -21.558531049798763 -1 -6 0
187 0 5 0 6.541900891022373 -15.637444384154456 -23.551276628705665 -1 -6 0
184 0 5 0 0.46076518844634107 -13.667040730867726 -23.479520412937205 -1 -6 0
182 0 5 0 2.4865982645472933 -13.60790769661175 -25.485149596553185 -1 -6 0
188 0 5 0 4.480102669018752 -13.629266453843847 -23.465665288421313 -1 -6 0
438 0 5 0 2.5112577759999706 -13.600726451712086 -21.49536613618658 -1 -6 0
186 0 5 0 6.463727190639679 -13.642029550822567 -25.583573957011073 -1 -6 0
442 0 5 0 6.577445257170793 -13.631766556964013 -21.553114805857337 -1 -6 0
469 0 5 0 0.47846939499221364 -11.600830597705533 -21.51166785389452 -1 -6 0
213 0 5 0 0.47602712982599904 -11.642613985528984 -25.508664658446957 -1 -6 0
215 0 5 0 2.522431608411013 -11.532288921268355 -23.520477456288486 -1 -6 0
473 0 5 0 4.515994545419789 -11.576707281259099 -21.493627160286277 -1 -6 0
217 0 5 0 4.5043401555639315 -11.671143374064219 -25.47324357457877 -1 -6 0
219 0 5 0 6.5569767801618895 -11.621600746033247 -23.47536768192645 -1 -6 0
216 0 5 0 0.4928507486842406 -9.582662506496508 -23.45773676747289 -1 -6 0
470 0 5 0 2.427800137709402 -9.60928913231051 -21.476601094027917 -1 -6 0
214 0 5 0 2.5478595615045143 -9.599868601757874 -25.51224820641207 -1 -6 0
220 0 5 0 4.523136775385704 -9.507607974178654 -23.477811846880584 -1 -6 0
474 0 5 0 6.585579319679183 -9.542254109028832 -21.559022751969923 -1 -6 0
218 0 5 0 6.5647010333352425 -9.54966408479052 -25.51533395448189 -1 -6 0
163 0 5 0 14.608977953462812 -15.593608947578087 -23.512777934675455 -2 -6 0
161 0 5 0 12.607697792058222 -15.536366478810843 -25.445014312086574 -2 -6 0
417 0 5 0 12.639752597594256 -15.65849043221643 -21.508014522050058 -2 -6 0
191 0 5 0 10.605146990845796 -15.64162429602623 -23.491892999610876 -1 -6 0
189 0 5 0 8.601180005309907 -15.67357188647326 -25.5897852436395 -1 -6 0
445 0 5 0 8.539555163247528 -15.592518800202773 -21.49651489905403 -1 -6 0
418 0 5 0 14.60901814167866 -13.645839363837137 -21.52799394480114 -2 -6 0
162 0 5 0 14.63580250070147 -13.574685619937249 -25.55811382147519 -2 -6 0
164 0 5 0 12.681997387452665 -13.489276851956298 -23.534022197284287 -2 -6 0
446 0 5 0 10.637521517544265 -13.593232748779165 -21.568393973723527 -1 -6 0
190 0 5 0 10.508646876462091 -13.508556384983503 -25.542122523155676 -1 -6 0
192 0 5 0 8.56904668998595 -13.64037900561836 -23.535616220428334 -1 -6 0
195 0 5 0 14.701181694747689 -11.51305045380181 -23.540585325814245 -2 -6 0
193 0 5 0 12.703333071798777 -11.552983084703722 -25.611444855040812 -2 -6 0
449 0 5 0 12.618212365642034 -11.54034123448661 -21.536730614819575 -2 -6 0
223 0 5 0 10.557861536625559 -11.626443415361175 -23.48701309442469 -1 -6 0
477 0 5 0 8.602922902990816 -11.628971126314317 -21.472333054530935 -1 -6 0
221 0 5 0 8.427926583139023 -11.666293285878321 -25.553593805048457 -1 -6 0
450 0 5 0 14.623967104106502 -9.546029217745142 -21.551668849537723 -2 -6 0
194 0 5 0 14.652247120748584 -9.568637430172727 -25.515869198581623 -2 -6 0
196 0 5 0 12.665431726337157 -9.570297606422988 -23.57918529485433 -2 -6 0
478 0 5 0 10.597882751291547 -9.50348959012848 -21.573792858826838 -1 -6 0
222 0 5 0 10.55629481806129 -9.575315645609718 -25.444708199224014 -1 -6 0
224 0 5 0 8.560499465820929 -9.61051404740244 -23.57908990007834 -1 -6 0
485 0 5 0 -15.650811558966739 -7.600689109330105 -21.534004402375007 -1 -6 0
229 0 5 0 -15.51055742101538 -7.534913110122194 -25.497332245825728 -1 -6 0
231 0 5 0 -13.657378672613971 -7.497427808139767 -23.50893099717752 -1 -6 0
489 0 5 0 -11.679818997013241 -7.506427956450985 -21.5166316069431 -1 -6 0
233 0 5 0 -11.677635850011574 -7.450186662360221 -25.510077424857695 -1 -6 0
235 0 5 0 -9.655529432169255 -7.4547438334315 -23.412856147986226 -1 -6 0
232 0 5 0 -15.633808461674244 -5.502068784183349 -23.52062244309857 -1 -6 0
486 0 5 0 -13.67223407237776 -5.378435478188584 -21.50012333945067 -1 -6 0
230 0 5 0 -13.540409718135608 -5.430137440417598 -25.397351095027922 -1 -6 0
236 0 5 0 -11.633407031024719 -5.412386800699197 -23.39925502762375 -1 -6 0
490 0 5 0 -9.607988175187087 -5.501692600700268 -21.47898478598395 -1 -6 0
234 0 5 0 -9.595719728160025 -5.536157160138197 -25.602490398237517 -1 -6 0
261 0 5 0 -15.671840774319053 -3.5311489296809175 -21.543423791335897 -1 -7 0
5 0 5 0 -15.674102987166671 -3.4941689162726175 -25.555636934242933 -1 -7 0
7 0 5 0 -13.631504491121229 -3.3885672083233294 -23.484269910554595 -1 -7 0
265 0 5 0 -11.643832957881857 -3.4049298793485203 -21.477813330029075 -1 -7 0
9 0 5 0 -11.523005908313474 -3.3850000437934007 -25.429802154172222 -1 -7 0
11 0 5 0 -9.577086704706778 -3.5202566686366827 -23.457935202100977 -1 -7 0
8 0 5 0 -15.611938881483988 -1.5142492560151066 -23.594002109424586 -1 -7 0
6 0 5 0 -13.616109884524322 -1.3992239605617918 -25.62039021970135 -1 -7 0
262 0 5 0 -13.67285508830298 -1.4458406338551268 -21.48865640488521 -1 -7 0
12 0 5 0 -11.558954898964496 -1.3957648654017722 -23.463107363390545 -1 -7 0
10 0 5 0 -9.551936147797692 -1.5030920250909494 -25.451211557227065 -1 -7 0
266 0 5 0 -9.485006657441973 -1.4922641218738808 -21.456909499400613 -1 -7 0
493 0 5 0 -7.619780289417079 -7.509887243460549 -21.477679369174353 -1 -6 0
237 0 5 0 -7.567674966909198 -7.570509386043741 -25.49395914390148 -1 -6 0
239 0 5 0 -5.590497654942363 -7.460688560355335 -23.469132849096255 -1 -6 0
241 0 5 0 -3.689467632700191 -7.584955578988447 -25.534274402830544 -1 -6 0
497 0 5 0 -3.5159872707055757 -7.571004262500991 -21.52654536374698 -1 -6 0
243 0 5 0 -1.5056217136721965 -7.614884549575359 -23.603000781722663 -1 -6 0
240 0 5 0 -7.621788063233735 -5.496643245185586 -23.52035671920627 -1 -6 0
238 0 5 0 -5.5982780704139445 -5.514671843117478 -25.53005534296249 -1 -6 0
494 0 5 0 -5.5473935413091 -5.439764229290221 -21.568208090781617 -1 -6 0
244 0 5 0 -3.5234613481524613 -5.520865393671065 -23.464202418562568 -1 -6 0
498 0 5 0 -1.5464844906905633 -5.501810748331673 -21.485595836797884 -1 -6 0
242 0 5 0 -1.4262212408930313 -5.545862053345301 -25.554676266678683 -1 -6 0
13 0 5 0 -7.58054849921858 -3.5147963695722093 -25.50013926748673 -1 -7 0
269 0 5 0 -7.532063015774176 -3.454023514276689 -21.544834564393458 -1 -7 0
15 0 5 0 -5.488217315412135 -3.428882306393382 -23.5660725776433 -1 -7 0
17 0 5 0 -3.415833254236188 -3.5082905141868834 -25.54832657556416 -1 -7 0
273 0 5 0 -3.49545723432372 -3.4919902562331733 -21.440904691842675 -1 -7 0
19 0 5 0 -1.4985878360504827 -3.5684722128951565 -23.4795762956119 -1 -7 0
16 0 5 0 -7.486327993052488 -1.43459660573916 -23.44350778929452 -1 -7 0
14 0 5 0 -5.479850302456307 -1.4775767427025304 -25.597908631409528 -1 -7 0
270 0 5 0 -5.476838389937358 -1.479226059719741 -21.490223589682103 -1 -7 0
20 0 5 0 -3.496469620566052 -1.543884536276223 -23.48069098707465 -1 -7 0
274 0 5 0 -1.5164523888955594 -1.4812616445928422 -21.513556564507734 -1 -7 0
18 0 5 0 -1.4594222935708943 -1.4962119753837673 -25.42587477684897 -1 -7 0
501 0 5 0 0.4512246680013767 -7.548811596213961 -21.51349101228322 -1 -6 0
245 0 5 0 0.4987659430391731 -7.641672946806035 -25.600961960513953 -1 -6 0
247 0 5 0 2.4974120216844464 -7.589209193070256 -23.527480289800284 -1 -6 0
249 0 5 0 4.567891681724176 -7.5771447075261396 -25.551886119355046 -1 -6 0
505 0 5 0 4.553934282907599 -7.521924339551941 -21.59823005551629 -1 -6 0
251 0 5 0 6.5568946260783605 -7.559830269620272 -23.50181182456319 -1 -6 0
248 0 5 0 0.5054631427489293 -5.576708722234147 -23.478305946372913 -1 -6 0
246 0 5 0 2.4112033482739434 -5.5816362927305585 -25.51975611371095 -1 -6 0
502 0 5 0 2.5009443083044403 -5.6118105687706805 -21.58271381466011 -1 -6 0
252 0 5 0 4.5111565575339325 -5.62054120771112 -23.573401912310498 -1 -6 0
250 0 5 0 6.652646242034652 -5.548893414508569 -25.526634374735433 -1 -6 0
506 0 5 0 6.557190262255106 -5.529209426395266 -21.50900396371946 -1 -6 0
25 0 5 0 4.578725088710429 -3.6061143431440623 -25.696531194783493 -1 -7 0
277 0 5 0 0.5334028970318072 -3.5461849491209803 -21.466887841489616 -1 -7 0
21 0 5 0 0.48937976770918734 -3.460879049651986 -25.53346093556773 -1 -7 0
23 0 5 0 2.5349480655009993 -3.543383060405686 -23.522477973634924 -1 -7 0
281 0 5 0 4.53197985572212 -3.6211551741329986 -21.616932594017122 -1 -7 0
27 0 5 0 6.536670824586888 -3.5226946671060095 -23.518750716691525 -1 -7 0
24 0 5 0 0.5256757175220113 -1.5261646116511867 -23.479859351284727 -1 -7 0
22 0 5 0 2.5827453064833112 -1.5550379137679295 -25.47102286930506 -1 -7 0
278 0 5 0 2.5922136317450293 -1.5381350821750326 -21.57652053050134 -1 -7 0
28 0 5 0 4.5524549907855505 -1.4987714355252577 -23.460028217485977 -1 -7 0
26 0 5 0 6.470671678688125 -1.4720137230832768 -25.552829411695008 -1 -7 0
282 0 5 0 6.506548108307054 -1.500746407434932 -21.556361455651302 -1 -7 0
227 0 5 0 14.68283798083057 -7.541392271928461 -23.553151862570267 -2 -6 0
225 0 5 0 12.648445168981922 -7.6361343814712335 -25.51759577447724 -2 -6 0
481 0 5 0 12.668565403919668 -7.616853457746637 -21.49314619129203 -2 -6 0
255 0 5 0 10.658349002452045 -7.536010367001849 -23.54903466080885 -1 -6 0
253 0 5 0 8.610806430070046 -7.488836114243504 -25.392151738796667 -1 -6 0
509 0 5 0 8.67367990930956 -7.558844498071246 -21.540680888290883 -1 -6 0
226 0 5 0 14.636485910194 -5.538663744044569 -25.611188554076318 -2 -6 0
482 0 5 0 14.631440981242282 -5.542406343122855 -21.512030755361906 -2 -6 0
228 0 5 0 12.680040138302303 -5.601306558638647 -23.47201411363375 -2 -6 0
510 0 5 0 10.599786717825225 -5.543636454658155 -21.5252775124658 -1 -6 0
254 0 5 0 10.662146372169637 -5.4721875571653396 -25.486386595848767 -1 -6 0
256 0 5 0 8.586567322476167 -5.480859146750043 -23.493244698714165 -1 -6 0
3 0 5 0 14.711115802420561 -3.549771106525467 -23.613044342136465 -2 -7 0
1 0 5 0 12.629360367653184 -3.543940678701383 -25.415037391222633 -2 -7 0
257 0 5 0 12.699015146179395 -3.555359601366162 -21.562397157789164 -2 -7 0
31 0 5 0 10.627301859008487 -3.4830820787134287 -23.473666658677324 -1 -7 0
285 0 5 0 8.600544295665298 -3.468182573497654 -21.57981527290979 -1 -7 0
29 0 5 0 8.611315365387195 -3.4345032023916966 -25.491126416304862 -1 -7 0
2 0 5 0 14.57753404009259 -1.4449737535177145 -25.51369546330244 -2 -7 0
258 0 5 0 14.709831732622007 -1.5360331530707405 -21.54970587094206 -2 -7 0
4 0 5 0 12.739288345543258 -1.535570375370049 -23.518279859904027 -2 -7 0
30 0 5 0 10.623692881727312 -1.5242540805638147 -25.504102713345503 -1 -7 0
286 0 5 0 10.644383672669989 -1.5785128625323763 -21.52204042095477 -1 -7 0
32 0 5 0 8.575800156278031 -1.421383916130541 -23.475616957585373 -1 -7 0
37 0 5 0 -15.640176752077496 0.4524886772083917 -25.49065628754914 -1 -7 0
293 0 5 0 -15.676538785076724 0.5147735340056515 -21.513550807513003 -1 -7 0
39 0 5 0 -13.646750712230334 0.5140509725773352 -23.422147744123574 -1 -7 0
297 0 5 0 -11.603218465233548 0.6334256238618173 -21.520445490841762 -1 -7 0
41 0 5 0 -11.529930574812477 0.5545415458244136 -25.54116214433748 -1 -7 0
43 0 5 0 -9.54706174961476 0.5440504857289253 -23.476815419735658 -1 -7 0
40 0 5 0 -15.643625576312834 2.5676612430297028 -23.49631496061322 -1 -7 0
38 0 5 0 -13.623101933644692 2.4158183890637885 -25.417334526579253 -1 -7 0
294 0 5 0 -13.632203980185194 2.56553404650559 -21.525962063007913 -1 -7 0
44 0 5 0 -11.627857230283423 2.589998149475292 -23.436232242988527 -1 -7 0
298 0 5 0 -9.590515067784656 2.585935759118186 -21.500056129255015 -1 -7 0
42 0 5 0 -9.585838906330034 2.5728056217033566 -25.42265607970608 -1 -7 0
69 0 5 0 -15.660220739950367 4.601497407515814 -25.516462083823793 -1 -7 0
325 0 5 0 -15.67105477769603 4.582023680855621 -21.54672085697476 -1 -7 0
71 0 5 0 -13.625426571509601 4.567238566319463 -23.488572672362473 -1 -7 0
73 0 5 0 -11.615455741418257 4.543920059313645 -25.48729700173142 -1 -7 0
329 0 5 0 -11.611586341291561 4.6601596795828675 -21.445879495518618 -1 -7 0
75 0 5 0 -9.672782264754032 4.5912615428510755 -23.430083925940817 -1 -7 0
72 0 5 0 -15.646247250716405 6.6215887532215865 -23.544534011414594 -1 -7 0
326 0 5 0 -13.661355710092698 6.605742433207223 -21.445887673631265 -1 -7 0
70 0 5 0 -13.537759243617915 6.5755109800551175 -25.495209226807376 -1 -7 0
76 0 5 0 -11.638029185675324 6.584674339281021 -23.488868922945535 -1 -7 0
330 0 5 0 -9.614944091008747 6.639026824078874 -21.50493813966758 -1 -7 0
74 0 5 0 -9.608097733287929 6.642761603683353 -25.505468125791154 -1 -7 0
45 0 5 0 -7.584595095198889 0.5459878508754152 -25.51438421827364 -1 -7 0
301 0 5 0 -7.524052137893586 0.5947256149078611 -21.478045031833492 -1 -7 0
47 0 5 0 -5.532930543733864 0.49895051133446194 -23.48707628820114 -1 -7 0
305 0 5 0 -3.466976369450042 0.5615749388668674 -21.460358001836642 -1 -7 0
49 0 5 0 -3.4917057957426563 0.5565179787770757 -25.35660491503056 -1 -7 0
51 0 5 0 -1.479229797802276 0.5287580656450697 -23.43496248954003 -1 -7 0
48 0 5 0 -7.569753283727932 2.5398677272567403 -23.4261794339399 -1 -7 0
46 0 5 0 -5.528826894233257 2.517364942559914 -25.32786365619612 -1 -7 0
302 0 5 0 -5.516191568555323 2.5098078199614937 -21.527388830034138 -1 -7 0
52 0 5 0 -3.5206152722419506 2.53057606572405 -23.426099257997397 -1 -7 0
306 0 5 0 -1.512044821202915 2.557316751245478 -21.45670055376198 -1 -7 0
50 0 5 0 -1.4950467403583754 2.573234029268579 -25.362061012610997 -1 -7 0
77 0 5 0 -7.60882817924041 4.568338700635744 -25.370978286995566 -1 -7 0
333 0 5 0 -7.631654650346171 4.568503956950301 -21.521403352215398 -1 -7 0
79 0 5 0 -5.594107965634368 4.642164039271803 -23.412851982879765 -1 -7 0
81 0 5 0 -3.528929386829418 4.5452709718319655 -25.43212055291546 -1 -7 0
337 0 5 0 -3.5549189140309965 4.5638971413189795 -21.471383896357604 -1 -7 0
83 0 5 0 -1.5371298317579307 4.50572858286662 -23.40653984081763 -1 -7 0
80 0 5 0 -7.628424919053426 6.619567325319208 -23.447524353611662 -1 -7 0
78 0 5 0 -5.5650449056891516 6.604070427550851 -25.399339249074668 -1 -7 0
334 0 5 0 -5.53868793619263 6.681310658514529 -21.520710634667488 -1 -7 0
84 0 5 0 -3.524576871051406 6.587205883423581 -23.41251524961371 -1 -7 0
338 0 5 0 -1.482050194387777 6.56434543660881 -21.554671043096274 -1 -7 0
82 0 5 0 -1.490161640923282 6.626601932658679 -25.51416865302782 -1 -7 0
309 0 5 0 0.5479932346034686 0.5143676101676358 -21.518314138077866 -1 -7 0
53 0 5 0 0.5556524394691111 0.47899991401316255 -25.414590682338293 -1 -7 0
55 0 5 0 2.5745441934513806 0.5642178359716262 -23.470869691135523 -1 -7 0
313 0 5 0 4.5857606672362685 0.5098671844506253 -21.51707696819261 -1 -7 0
57 0 5 0 4.549648673575952 0.5457809766841852 -25.522644401465744 -1 -7 0
59 0 5 0 6.594548041218285 0.5445890572969881 -23.53403996091194 -1 -7 0
56 0 5 0 0.5487315415539302 2.53695499843447 -23.37367952280939 -1 -7 0
54 0 5 0 2.4657780828180584 2.554167276864831 -25.51043541238339 -1 -7 0
310 0 5 0 2.604409170909075 2.553560711829431 -21.47391277780861 -1 -7 0
60 0 5 0 4.625011151768313 2.5072732148076664 -23.51391726403365 -1 -7 0
314 0 5 0 6.567225488577087 2.5274267096389584 -21.523354013401004 -1 -7 0
58 0 5 0 6.604923376097723 2.525290829437969 -25.612491806629127 -1 -7 0
85 0 5 0 0.5339910502344183 4.60966423991288 -25.503073916173896 -1 -7 0
341 0 5 0 0.5328839859603995 4.590849300836057 -21.464072439928785 -1 -7 0
87 0 5 0 2.5404010302798907 4.589461696252369 -23.36884992929485 -1 -7 0
89 0 5 0 4.457505210468091 4.57656552191226 -25.38818823129109 -1 -7 0
345 0 5 0 4.59785689000902 4.5902393737734295 -21.531270518059216 -1 -7 0
91 0 5 0 6.603090252708241 4.533128808066255 -23.50867130240257 -1 -7 0
88 0 5 0 0.5568577458411035 6.544347665453498 -23.40850820559677 -1 -7 0
342 0 5 0 2.571343209453236 6.583140709816965 -21.436721436397594 -1 -7 0
86 0 5 0 2.563924779124528 6.596553961524863 -25.419058358467513 -1 -7 0
92 0 5 0 4.558548599374298 6.63794173521662 -23.461769259601432 -1 -7 0
346 0 5 0 6.565879234739019 6.614590832130811 -21.560790363711767 -1 -7 0
90 0 5 0 6.512041162680003 6.571628430763677 -25.507670730258585 -1 -7 0
35 0 5 0 14.641819807175352 0.6009337851748937 -23.498704354088638 -2 -7 0
289 0 5 0 12.600691344894184 0.480338005152083 -21.503001411815944 -2 -7 0
33 0 5 0 12.608249990900596 0.4989548453918035 -25.544650695696465 -2 -7 0
63 0 5 0 10.645679032872184 0.4959693255000799 -23.489341838817953 -1 -7 0
61 0 5 0 8.596805545117018 0.48992875405138964 -25.507177733463198 -1 -7 0
317 0 5 0 8.60136011563499 0.545034505861656 -21.586766403305536 -1 -7 0
34 0 5 0 14.644020649366393 2.5230942688703326 -25.555435705369963 -2 -7 0
290 0 5 0 14.69334894339126 2.5370575854106434 -21.528372708872705 -2 -7 0
36 0 5 0 12.624024822740786 2.5179251107082714 -23.477495272781276 -2 -7 0
318 0 5 0 10.564788721348442 2.548060777712547 -21.4897074888524 -1 -7 0
62 0 5 0 10.560920563361922 2.558169220463619 -25.469949544757725 -1 -7 0
64 0 5 0 8.541031793189518 2.5154529674091357 -23.534222871614066 -1 -7 0
67 0 5 0 14.621780118187996 4.517139408440564 -23.524492550441366 -2 -7 0
65 0 5 0 12.628671471596693 4.559266949926101 -25.548278000826343 -2 -7 0
95 0 5 0 10.611325514581477 4.52051445497703 -23.528544307271936 -1 -7 0
93 0 5 0 8.57624914324159 4.636026869209855 -25.494986640429516 -1 -7 0
321 0 5 0 12.648761874317962 4.56307107925955 -21.50792166949267 -2 -7 0
349 0 5 0 8.543201758045829 4.599411031294402 -21.552848367252505 -1 -7 0
322 0 5 0 14.715618903124149 6.558880318791748 -21.507823493210896 -2 -7 0
66 0 5 0 14.748224896250438 6.621561250041704 -25.539289597229455 -2 -7 0
68 0 5 0 12.72583775716982 6.603752177645446 -23.471521980732764 -2 -7 0
94 0 5 0 10.585866281939257 6.6021330632467405 -25.386336852439307 -1 -7 0
350 0 5 0 10.67333303304705 6.555963520436036 -21.50323592325234 -1 -7 0
96 0 5 0 8.487697741145013 6.616095106484845 -23.48190036475767 -1 -7 0
136 0 5 0 -15.710704312665579 14.707120329827815 -23.502281256546272 -1 -7 0
134 0 5 0 -13.659971811709886 14.737057894059348 -25.445239385495462 -1 -7 0
390 0 5 0 -13.64300299053843 14.640942340064694 -21.578409713693848 -1 -7 0
140 0 5 0 -11.615627455036615 14.66267731738935 -23.50708241327645 -1 -7 0
394 0 5 0 -9.641619195019482 14.669621872837677 -21.532390356978105 -1 -7 0
138 0 5 0 -9.558416304342186 14.717208030863999 -25.52057610648484 -1 -7 0
389 0 5 0 -15.680402350899689 12.62015826687484 -21.509506687596286 -1 -7 0
133 0 5 0 -15.640911039646992 12.690287782141723 -25.418544792222335 -1 -7 0
135 0 5 0 -13.666381696258115 12.653073737753537 -23.454999216498233 -1 -7 0
137 0 5 0 -11.59438297921229 12.756992229347329 -25.583079591077833 -1 -7 0
393 0 5 0 -11.579693124066077 12.715072106938642 -21.49307707021579 -1 -7 0
139 0 5 0 -9.491192978748154 12.651026226409646 -23.47717518791897 -1 -7 0
104 0 5 0 -15.68729213887555 10.602672690131122 -23.440527933296636 -1 -7 0
358 0 5 0 -13.605517431695569 10.642642199891533 -21.520546435642185 -1 -7 0
102 0 5 0 -13.584743603665311 10.6502185489335 -25.397707057257477 -1 -7 0
108 0 5 0 -11.608734475931628 10.674570971005098 -23.430866772917337 -1 -7 0
362 0 5 0 -9.623113848704483 10.646664906817849 -21.486908090821164 -1 -7 0
106 0 5 0 -9.526588672241827 10.615260457644387 -25.443072685550845 -1 -7 0
357 0 5 0 -15.57715139995202 8.620852451224566 -21.486521645162405 -1 -7 0
101 0 5 0 -15.579148092451893 8.663297198617965 -25.41004040844288 -1 -7 0
103 0 5 0 -13.610703311170992 8.599991380296405 -23.444877404880536 -1 -7 0
361 0 5 0 -11.637590577521221 8.58947245468103 -21.508549461337516 -1 -7 0
105 0 5 0 -11.668595248733306 8.65145806878801 -25.561591089985136 -1 -7 0
107 0 5 0 -9.666049562099191 8.676422373108506 -23.445688950485085 -1 -7 0
144 0 5 0 -7.672209964109952 14.730902623754547 -23.453534668329752 -1 -7 0
398 0 5 0 -5.6232159364478616 14.712675348245225 -21.555503306001924 -1 -7 0
142 0 5 0 -5.578850485588237 14.748333461251438 -25.462753478340037 -1 -7 0
148 0 5 0 -3.512824942184835 14.694743240743012 -23.440022762343954 -1 -7 0
146 0 5 0 -1.5776532357764115 14.63764088057031 -25.41511615355459 -1 -7 0
402 0 5 0 -1.515349220679651 14.642132387180029 -21.478666994831674 -1 -7 0
397 0 5 0 -7.605959442508349 12.761335889248766 -21.437812341713588 -1 -7 0
141 0 5 0 -7.509958009596796 12.671895062593823 -25.503371100787636 -1 -7 0
143 0 5 0 -5.645923999436955 12.703705354370959 -23.461995744268236 -1 -7 0
401 0 5 0 -3.6047169602760163 12.688220487466932 -21.511493892365912 -1 -7 0
145 0 5 0 -3.583574797763266 12.643670118939184 -25.461301589183805 -1 -7 0
147 0 5 0 -1.554854584101002 12.635432629397485 -23.464970662975077 -1 -7 0
112 0 5 0 -7.567692493525058 10.634788561863813 -23.45779427814805 -1 -7 0
110 0 5 0 -5.615453185614686 10.601145473775597 -25.591214976728015 -1 -7 0
366 0 5 0 -5.585693038824578 10.636976793438855 -21.5284396239418 -1 -7 0
116 0 5 0 -3.561962999685234 10.663284977388354 -23.490366231476912 -1 -7 0
114 0 5 0 -1.5459837589679766 10.620845997368756 -25.472387929159257 -1 -7 0
370 0 5 0 -1.5539591060416513 10.682019302102333 -21.521123461525654 -1 -7 0
365 0 5 0 -7.5976478155644696 8.604229319198266 -21.497286595033625 -1 -7 0
109 0 5 0 -7.534813651224464 8.585214989489508 -25.460831542821115 -1 -7 0
111 0 5 0 -5.5573600592652745 8.661846928113887 -23.440030138547403 -1 -7 0
369 0 5 0 -3.5779428819740766 8.636603179845604 -21.497469249435042 -1 -7 0
113 0 5 0 -3.486218090707849 8.647067506153753 -25.377713429069992 -1 -7 0
115 0 5 0 -1.4790157731041087 8.626174867294793 -23.39897288949825 -1 -7 0
152 0 5 0 0.4620151370303054 14.56485015574581 -23.534389465070042 -1 -7 0
406 0 5 0 2.586581170498656 14.600915312305872 -21.554401853190985 -1 -7 0
150 0 5 0 2.5276882674218184 14.593294864057698 -25.619609724178996 -1 -7 0
156 0 5 0 4.534484498817946 14.599870122974114 -23.61805739786 -1 -7 0
154 0 5 0 6.576431721954071 14.671503960930705 -25.456395241818804 -1 -7 0
410 0 5 0 6.537530601596067 14.694985908789747 -21.548426273413543 -1 -7 0
149 0 5 0 0.5226818184631932 12.505901823202624 -25.44639081121777 -1 -7 0
405 0 5 0 0.48025207111105717 12.675443196107068 -21.51846555819226 -1 -7 0
151 0 5 0 2.618352633007445 12.646144548720123 -23.55417836686752 -1 -7 0
409 0 5 0 4.633947358818344 12.67612569377006 -21.52583412330252 -1 -7 0
153 0 5 0 4.524544767473694 12.698474400661413 -25.750461525849406 -1 -7 0
155 0 5 0 6.504397121216411 12.62243507053968 -23.512503327032107 -1 -7 0
120 0 5 0 0.5138092277506705 10.554830559840536 -23.532550627012935 -1 -7 0
374 0 5 0 2.540691702697177 10.642209417901904 -21.505963456428834 -1 -7 0
118 0 5 0 2.5525159117778644 10.577217034432964 -25.520067542149235 -1 -7 0
124 0 5 0 4.500122346703126 10.604727222325554 -23.470056927314406 -1 -7 0
378 0 5 0 6.57866914214894 10.573855900917913 -21.564694248227553 -1 -7 0
122 0 5 0 6.496812583180173 10.688758282186543 -25.47534631305658 -1 -7 0
373 0 5 0 0.555820639598616 8.634966190226532 -21.48283901407624 -1 -7 0
117 0 5 0 0.49060000734435016 8.574695847253215 -25.444413392527668 -1 -7 0
119 0 5 0 2.5137798333491297 8.614556842001546 -23.491522997593012 -1 -7 0
377 0 5 0 4.567434422948431 8.584804421731793 -21.410596404725965 -1 -7 0
121 0 5 0 4.559596185959973 8.525852537365756 -25.46455963648587 -1 -7 0
123 0 5 0 6.553727548311432 8.64417758014607 -23.49362340532894 -1 -7 0
130 0 5 0 14.698052896114135 14.71645590237845 -25.558055661157876 -2 -7 0
386 0 5 0 14.645498871202797 14.619367129442065 -21.547598776248396 -2 -7 0
132 0 5 0 12.631867268815522 14.680703368171164 -23.520908491506198 -2 -7 0
414 0 5 0 10.654336069969819 14.711235696929858 -21.484947243388852 -1 -7 0
158 0 5 0 10.646715342053678 14.71375720888346 -25.536961140904456 -1 -7 0
160 0 5 0 8.540212807191931 14.712216309198418 -23.468843234958424 -1 -7 0
131 0 5 0 14.62388961697999 12.683650573622897 -23.407034676492568 -2 -7 0
385 0 5 0 12.61232269311473 12.59634419416626 -21.49839993822512 -2 -7 0
129 0 5 0 12.622308701081153 12.659653193769003 -25.575860920309623 -2 -7 0
159 0 5 0 10.717476484324784 12.747730505398568 -23.570537162504074 -1 -7 0
157 0 5 0 8.604706808559662 12.603001454604536 -25.484725252476768 -1 -7 0
413 0 5 0 8.549028774359552 12.626758228814166 -21.547458696294644 -1 -7 0
354 0 5 0 14.585337320488676 10.6125707850328 -21.45842889980758 -2 -7 0
98 0 5 0 14.550352912313038 10.60443722946642 -25.50788623953261 -2 -7 0
100 0 5 0 12.577379287899461 10.61536327184315 -23.5200701702329 -2 -7 0
126 0 5 0 10.571717745827932 10.622209353975434 -25.549298457019834 -1 -7 0
382 0 5 0 10.563906868139107 10.595385046891673 -21.550269428357712 -1 -7 0
128 0 5 0 8.518533976226575 10.618685569649003 -23.5768407199183 -1 -7 0
99 0 5 0 14.63923157701769 8.626246774005192 -23.422940573425052 -2 -7 0
353 0 5 0 12.574213489708686 8.614782063394397 -21.54413673299271 -2 -7 0
97 0 5 0 12.636708164592093 8.614834692616338 -25.502965583529832 -2 -7 0
127 0 5 0 10.590189224425163 8.601354789262032 -23.52837431250313 -1 -7 0
125 0 5 0 8.589520216685553 8.503006351165046 -25.557925993728905 -1 -7 0
381 0 5 0 8.618278906747342 8.583579325693757 -21.5127501681479 -1 -7 0
1745 155 2 0.5564 -11.532233772079357 -15.888376794230574 -12.601835124325007 -1 -6 0
2295 339 1 -1.1128 -13.166011043977896 15.379400114975494 -11.871595551167268 -1 -8 0
2296 339 2 0.5564 -13.055036993252227 15.461397150688047 -10.924392242335779 -1 -8 0
595 0 5 0 -15.721655577182661 -15.573913131849867 -17.520492091686734 -1 -6 0
1599 107 1 -1.1128 -13.272578009147104 -15.602776243405222 -15.008980112848429 -1 -6 0
423 0 5 0 -13.637092169178432 -15.626640372056658 -19.552720377041293 -1 -6 0
597 0 5 0 -11.65713326018511 -15.637586673244003 -17.504335613880667 -1 -6 0