LAMMPS data file via write_data, version 29 Sep 2021, timestep = 10000

4948 atoms
5 atom types
2432 bonds
1 bond types
1216 angles
1 angle types

-16.16 16.16 xlo xhi
-16.16 16.16 ylo yhi
-52.52 52.52 zlo zhi

Masses

1 15.9994
2 1.008
3 28.99
4 35.453
5 26.9815

Pair Coeffs # lj/cut/tip4p/long

1 0.185199 3.1589
2 0 0
3 0.0469 2.4299
4 0.15 4.0447
5 11.697 2.574

Bond Coeffs # harmonic

1 0 0.9572

Angle Coeffs # harmonic

1 0 104.52

Atoms # full

2 0 5 0 -14.145380257917257 -14.126381809573068 -48.254560185923985 0 0 0
5 0 5 0 -12.121202035685778 -16.14762698076843 -48.25407124656723 0 0 0
6 0 5 0 -10.099507524487022 -14.12679809722781 -48.24867935117386 0 0 0
8 0 5 0 -12.12385685089676 -14.127515033450562 -46.254564259588356 0 0 0
34 0 5 0 -14.146576673442384 -10.085940687547673 -48.24922699302348 0 0 0
35 0 5 0 -14.146865160867799 -12.106898317143404 -46.253921977106096 0 0 0
37 0 5 0 -12.122733674703522 -12.10583041493294 -48.25054845829373 0 0 0
38 0 5 0 -10.10146275746373 -10.087144379362966 -48.24444169555094 0 0 0
39 0 5 0 -10.103684358906408 -12.10781610651589 -46.246520267159 0 0 0
40 0 5 0 -12.125744478592493 -10.088559360040275 -46.2471610968943 0 0 0
3 0 5 0 -14.145765521467808 -16.149765491506372 -46.25922075814637 0 0 0
7 0 5 0 -10.101644218318883 -16.149574858498614 -46.25154314044836 0 0 0
44 0 5 0 -8.083345018921294 -10.089095304055554 -46.240095466840195 0 0 0
12 0 5 0 -8.082080205054913 -14.128983464335663 -46.24385326118207 0 0 0
9 0 5 0 -8.078477697570609 -16.148457512751122 -48.24560630327925 0 0 0
41 0 5 0 -8.079807681681796 -12.107141756714405 -48.24265696654132 0 0 0
10 0 5 0 -6.059826376025832 -14.128467260764792 -48.24065412537992 0 0 0
14 0 5 0 -2.022249638480114 -14.12921395814374 -48.23446434511872 0 0 0
16 0 5 0 -4.043359274744326 -14.130622538781111 -46.236856876194466 0 0 0
42 0 5 0 -6.05975744743718 -10.088560078582082 -48.237311861083555 0 0 0
43 0 5 0 -6.0626562492239255 -12.109780608787933 -46.238960935125974 0 0 0
45 0 5 0 -4.0404550312104694 -12.108747250010062 -48.236279687543025 0 0 0
46 0 5 0 -2.0208103104952166 -10.089856633559021 -48.23261927055678 0 0 0
47 0 5 0 -2.0233023006689415 -12.110689427074934 -46.23280780943607 0 0 0
48 0 5 0 -4.042232914116775 -10.090878390551813 -46.23343550208098 0 0 0
11 0 5 0 -6.062424434886213 -16.150153225294076 -46.23971313621296 0 0 0
13 0 5 0 -4.041279062554845 -16.149430215017883 -48.2378105450109 0 0 0
15 0 5 0 -2.025482460642359 -16.15033180286699 -46.23310301785605 0 0 0
52 0 5 0 -0.00270495000198538 -10.090729780523496 -46.23020227045853 0 0 0
49 0 5 0 -0.003079178601981759 -12.109404928632035 -48.2317313936122 0 0 0
20 0 5 0 -0.00542176216888189 -14.129863448517492 -46.230258782041645 0 0 0
17 0 5 0 -0.0057788234934487955 -16.148918019207187 -48.23245134818115 0 0 0
18 0 5 0 2.012847338633859 -14.128735595590744 -48.2317618531951 0 0 0
22 0 5 0 6.047368236391163 -14.127753096119074 -48.23797276493816 0 0 0
24 0 5 0 4.0326863656617995 -14.1293980613515 -46.23185368204747 0 0 0
50 0 5 0 2.0158410068658204 -10.089678914037384 -48.230252610583214 0 0 0
51 0 5 0 2.015257736256322 -12.11025071873784 -46.2290741250973 0 0 0
53 0 5 0 4.031623541388758 -12.108581923127055 -48.232416817556825 0 0 0
54 0 5 0 6.050336056451295 -10.08841860460579 -48.234302980616036 0 0 0
55 0 5 0 6.052880600971537 -12.10891612491116 -46.23406710920749 0 0 0
56 0 5 0 4.035714112617035 -10.089528315951009 -46.22992260102017 0 0 0
19 0 5 0 2.0120774519471913 -16.149599505846847 -46.230956905874734 0 0 0
21 0 5 0 4.02821906614826 -16.148372173302743 -48.23536986699493 0 0 0
23 0 5 0 6.049130819862102 -16.149299049041957 -46.238575986581836 0 0 0
28 0 5 0 8.069215922411402 -14.128753542472781 -46.24185369718673 0 0 0
25 0 5 0 8.064428574372451 -16.148303076547624 -48.24442684154804 0 0 0
57 0 5 0 8.06706168802521 -12.1070063102588 -48.24011306416998 0 0 0
60 0 5 0 8.071182491480082 -10.088933249183771 -46.23473989148183 0 0 0
1 0 5 0 16.151563873787822 -16.147816562219223 -48.2577612665306 -1 0 0
4 0 5 0 16.15100586461288 -14.128067390858096 -46.25752807442542 -1 0 0
33 0 5 0 16.150425974089963 -12.105518824802527 -48.25227993184011 -1 0 0
36 0 5 0 16.15063507720028 -10.087642277649719 -46.249192984546774 -1 0 0
26 0 5 0 10.084992975088463 -14.127110456718832 -48.24671581317829 0 0 0
30 0 5 0 14.127526110388901 -14.126510174876122 -48.2540112185058 0 0 0
32 0 5 0 12.107885960708824 -14.128177547531443 -46.25159209583838 0 0 0
58 0 5 0 10.086374346036843 -10.087009967520695 -48.241357029324725 0 0 0
59 0 5 0 10.088897300588263 -12.107899645004697 -46.24293655709273 0 0 0
61 0 5 0 12.105839667069336 -12.106011498113135 -48.248146842005895 0 0 0
62 0 5 0 14.127806748731093 -10.086124948676417 -48.24753818490829 0 0 0
63 0 5 0 14.128780326203655 -12.107663723666771 -46.251609907019336 0 0 0
64 0 5 0 12.108737602149736 -10.088522492171446 -46.24361697320123 0 0 0
29 0 5 0 12.105071517602207 -16.148220716692716 -48.25295345670467 0 0 0
27 0 5 0 10.086947030540603 -16.149774719094726 -46.24913211583675 0 0 0
31 0 5 0 14.129498292329519 -16.14952880754684 -46.25881054987128 0 0 0
66 0 5 0 -14.146409570604927 -6.050824799917574 -48.24428734535037 0 0 0
67 0 5 0 -14.14754145379416 -8.069551929914889 -46.24514527568791 0 0 0
69 0 5 0 -12.12410235388537 -8.068398791994946 -48.24444889157635 0 0 0
70 0 5 0 -10.101908872434027 -6.051821974230648 -48.241248673763536 0 0 0
71 0 5 0 -10.10427865704763 -8.070042007327865 -46.241752712774236 0 0 0
72 0 5 0 -12.125392891964683 -6.051120991090421 -46.24197490920265 0 0 0
98 0 5 0 -14.145809887957988 -2.0163622563382804 -48.24715980340547 0 0 0
99 0 5 0 -14.146353534527078 -4.032649735164421 -46.243712941094365 0 0 0
101 0 5 0 -12.12373252632424 -4.034287177595366 -48.24360445171958 0 0 0
102 0 5 0 -10.101874148725562 -2.0174029793138515 -48.24405789249285 0 0 0
103 0 5 0 -10.103512159202175 -4.0337518641655885 -46.240362142143994 0 0 0
104 0 5 0 -12.124836049958628 -2.015028109313595 -46.24430831660237 0 0 0
76 0 5 0 -8.08234874415626 -6.052449047229969 -46.23752632795466 0 0 0
108 0 5 0 -8.082773276126684 -2.016821914071149 -46.2409907184861 0 0 0
77 0 5 0 -4.039605655821749 -8.071247346568322 -48.233505701862 0 0 0
73 0 5 0 -8.080224038704406 -8.069832579153433 -48.23935264228095 0 0 0
79 0 5 0 -2.021354183227916 -8.071714354031673 -46.23040067912191 0 0 0
105 0 5 0 -8.080297776705416 -4.03566944992295 -48.24014266613525 0 0 0
74 0 5 0 -6.059316687087333 -6.053667521038769 -48.23653632155428 0 0 0
75 0 5 0 -6.062210554014774 -8.071286657404675 -46.2341024391651 0 0 0
78 0 5 0 -2.0195847931537734 -6.053466549723927 -48.231873042767745 0 0 0
80 0 5 0 -4.041211753985476 -6.0533960208423085 -46.23199734429368 0 0 0
106 0 5 0 -6.059480076320699 -2.0175804738875938 -48.23942919426018 0 0 0
107 0 5 0 -6.061296037571454 -4.03552644645401 -46.23657096129966 0 0 0
109 0 5 0 -4.038977315610683 -4.036190725367827 -48.23576303392192 0 0 0
110 0 5 0 -2.0195771941974745 -2.016456860569956 -48.23524356044544 0 0 0
111 0 5 0 -2.0207228295716573 -4.034350279267653 -46.23180169764256 0 0 0
112 0 5 0 -4.040919807882061 -2.017152507986996 -46.236690488849426 0 0 0
84 0 5 0 -0.0008753496769244149 -6.051830648866071 -46.228517055272434 0 0 0
113 0 5 0 -0.00077821944439318 -4.0345844612114865 -48.23179121420362 0 0 0
116 0 5 0 -0.001356928488874328 -2.014789880451712 -46.23147318291514 0 0 0
81 0 5 0 -0.0012607281817076357 -8.070937661274272 -48.23053488438084 0 0 0
82 0 5 0 2.0169765598788683 -6.051820351994754 -48.23045786626862 0 0 0
83 0 5 0 2.017641025135473 -8.069897284857687 -46.228609338507766 0 0 0
85 0 5 0 4.033895761897369 -8.069957173308264 -48.231095324907386 0 0 0
86 0 5 0 6.050798319847532 -6.051279690793552 -48.23257066198148 0 0 0
87 0 5 0 6.053622607919667 -8.069993470677455 -46.23001897729111 0 0 0
88 0 5 0 4.035436019581372 -6.051002606261536 -46.22745264816354 0 0 0
114 0 5 0 2.0162081377559913 -2.015063296331545 -48.232677455707986 0 0 0
115 0 5 0 2.0173457359095366 -4.032766445076785 -46.22749842528886 0 0 0
117 0 5 0 4.033524798837721 -4.033229178821241 -48.23150351649682 0 0 0
118 0 5 0 6.050043166156755 -2.014088297423567 -48.23437568106286 0 0 0
119 0 5 0 6.0523215671862465 -4.0322822897078145 -46.2304502914897 0 0 0
120 0 5 0 4.034153950964653 -2.012944902643228 -46.23044867621994 0 0 0
89 0 5 0 8.068286900530918 -8.069284658793029 -48.235931356230545 0 0 0
92 0 5 0 8.07125579058974 -6.051447782968618 -46.23278026582436 0 0 0
121 0 5 0 8.068241999370933 -4.032729992856938 -48.23521932662562 0 0 0
124 0 5 0 8.069818436745164 -2.0126176162629825 -46.23476073580682 0 0 0
95 0 5 0 14.129721692562063 -8.069284847873977 -46.243587621994 0 0 0
65 0 5 0 16.15052310338785 -8.067699975780664 -48.246172272389195 -1 0 0
68 0 5 0 16.151533176990498 -6.050874016856141 -46.24350455286862 -1 0 0
97 0 5 0 16.151187364903677 -4.033582614936636 -48.24514518298744 -1 0 0
100 0 5 0 16.15217088032653 -2.0139159930031667 -46.2475225576804 -1 0 0
90 0 5 0 10.087109453911326 -6.050861112938022 -48.23819063717185 0 0 0
91 0 5 0 10.089782559864702 -8.069920778799533 -46.236752665668355 0 0 0
93 0 5 0 12.10684148695183 -8.068291776270609 -48.242185832087706 0 0 0
94 0 5 0 14.128443343846438 -6.050592030902512 -48.24345666242374 0 0 0
96 0 5 0 12.10947349654079 -6.050977358704599 -46.23940411049612 0 0 0
122 0 5 0 10.086517017219434 -2.0141105951626765 -48.23955230693547 0 0 0
123 0 5 0 10.089845872728619 -4.03242912697366 -46.23657046714183 0 0 0
125 0 5 0 12.107041278807218 -4.0328594797688915 -48.24158591395164 0 0 0
126 0 5 0 14.128614233515949 -2.0148707826749743 -48.24582205483042 0 0 0
127 0 5 0 14.13033345362524 -4.032439511628425 -46.243374490614464 0 0 0
128 0 5 0 12.10955954037171 -2.013254047643735 -46.24240654127778 0 0 0
133 0 5 0 -12.123609400621953 0.0018098213821119773 -48.248820780057486 0 0 0
135 0 5 0 -10.104342021972466 0.0027936799405960115 -46.246179258494095 0 0 0
131 0 5 0 -14.146199969359424 0.00410500082543539 -46.250010165548964 0 0 0
130 0 5 0 -14.145916559030752 2.022851188219441 -48.25199233109967 0 0 0
134 0 5 0 -10.101813521645148 2.0220553908821426 -48.24893204655982 0 0 0
136 0 5 0 -12.125244261525443 2.0232416497044095 -46.25212340993139 0 0 0
162 0 5 0 -14.144707319018377 6.064472497691757 -48.256022121085465 0 0 0
163 0 5 0 -14.146398974679375 4.0449819774760885 -46.25482931805057 0 0 0
165 0 5 0 -12.12336554426278 4.043522447945469 -48.25275976561618 0 0 0
166 0 5 0 -10.101250528137253 6.065525065310849 -48.25229418321298 0 0 0
167 0 5 0 -10.104548761957362 4.045081452112102 -46.25218196807985 0 0 0
168 0 5 0 -12.124484862040843 6.066272638228303 -46.254870197155654 0 0 0
140 0 5 0 -8.084409045799024 2.02346769745759 -46.246138298706384 0 0 0
172 0 5 0 -8.084044334366766 6.068293055896812 -46.24984555034103 0 0 0
137 0 5 0 -8.080613048827663 0.0017001908136883108 -48.243650183868326 0 0 0
169 0 5 0 -8.080592633345539 4.044191655357908 -48.247276527540315 0 0 0
139 0 5 0 -6.062804582407671 0.0024289123669137274 -46.24069584581898 0 0 0
141 0 5 0 -4.039647233882962 0.0030273272408984694 -48.2375310012885 0 0 0
143 0 5 0 -2.0208719240545516 0.003509667713241523 -46.235657518423714 0 0 0
138 0 5 0 -6.060195195481283 2.0231401463015746 -48.24134669772768 0 0 0
142 0 5 0 -2.0209464138116977 2.0248571267652897 -48.23546849173185 0 0 0
144 0 5 0 -4.042875379889053 2.0244487874648778 -46.23864266749042 0 0 0
170 0 5 0 -6.060237245564838 6.067091464211922 -48.244589951072356 0 0 0
171 0 5 0 -6.064552979573093 4.046638388732548 -46.243884614676745 0 0 0
173 0 5 0 -4.040751019869171 4.045528763416482 -48.238668590230155 0 0 0
174 0 5 0 -2.02274693385905 6.06832230409101 -48.238169131651354 0 0 0
175 0 5 0 -2.0223667902129674 4.048110810139377 -46.237231165936684 0 0 0
176 0 5 0 -4.044016609696285 6.070051812068548 -46.24141351416559 0 0 0
145 0 5 0 -0.001626864895230259 0.004588067047340316 -48.234628254713556 0 0 0
148 0 5 0 -0.0013383656199946678 2.0264987463340423 -46.23500707166341 0 0 0
177 0 5 0 -0.003561737901037633 4.047073101541827 -48.23630480260662 0 0 0
180 0 5 0 -0.004443560640292618 6.070164133583065 -46.23676995571957 0 0 0
146 0 5 0 2.0151282238512747 2.0262171566851523 -48.23605530325784 0 0 0
147 0 5 0 2.0168395529597016 0.00635218210766703 -46.23288698116182 0 0 0
149 0 5 0 4.0325075923218 0.0053821040399819695 -48.235439764223905 0 0 0
150 0 5 0 6.048401830057596 2.0265705750723813 -48.23989120903984 0 0 0
151 0 5 0 6.051057688371434 0.00783487608380581 -46.234958519411926 0 0 0
152 0 5 0 4.03402472280094 2.02810037157992 -46.235866382824575 0 0 0
178 0 5 0 2.012207648783194 6.069432735306609 -48.23783849240605 0 0 0
179 0 5 0 2.015767088675422 4.049004449624809 -46.23596487522975 0 0 0
181 0 5 0 4.030631410431115 4.048238801469418 -48.238915939113056 0 0 0
182 0 5 0 6.046195930656114 6.06979483003666 -48.24235599728457 0 0 0
183 0 5 0 6.050291298333998 4.04988129147414 -46.24026777257288 0 0 0
184 0 5 0 4.031252329309601 6.070475974632695 -46.23776304031889 0 0 0
153 0 5 0 8.066925898494754 0.005616032206870487 -48.239149706097514 0 0 0
188 0 5 0 8.067756216994406 6.0704462936765085 -46.24534525579039 0 0 0
185 0 5 0 8.065115239666135 4.047954279081781 -48.24518902597536 0 0 0
156 0 5 0 8.068131500532175 2.028983076973185 -46.241787674088954 0 0 0
129 0 5 0 16.15147719692522 0.00357413910808019 -48.24984876092417 -1 0 0
132 0 5 0 16.151748446776246 2.0250834151496235 -46.252787711409894 -1 0 0
161 0 5 0 16.151833738242164 4.044233835419896 -48.25424612626899 -1 0 0
155 0 5 0 10.088343886818494 0.0073957408732680235 -46.24167961763187 0 0 0
157 0 5 0 12.10656676445746 0.004950237964666694 -48.24528282064494 0 0 0
159 0 5 0 14.1306422843088 0.006263416910218278 -46.24890201962251 0 0 0
164 0 5 0 16.152195283197276 6.066997808770743 -46.25818452730337 -1 0 0
154 0 5 0 10.085301803652477 2.0259198323610668 -48.2452239794254 0 0 0
158 0 5 0 14.128769581240933 2.024461922098306 -48.251164090141685 0 0 0
160 0 5 0 12.108846251288165 2.027851021308851 -46.2496988758066 0 0 0
186 0 5 0 10.084077855671845 6.068404913719924 -48.251186574935794 0 0 0
187 0 5 0 10.087367294922068 4.050018303211331 -46.24952051367882 0 0 0
189 0 5 0 12.106181607579627 4.04621811955696 -48.2518961550269 0 0 0
190 0 5 0 14.128960911919997 6.06593175997834 -48.25636092251285 0 0 0
191 0 5 0 14.129895896970371 4.04711351900952 -46.2550681239602 0 0 0
192 0 5 0 12.108102816462576 6.069228137879881 -46.255679758384375 0 0 0
197 0 5 0 -12.121882891031664 8.085926893457149 -48.25624082334535 0 0 0
195 0 5 0 -14.145316470707492 8.086679239904644 -46.2593967253252 0 0 0
199 0 5 0 -10.103193566207995 8.087896420273353 -46.2534575393078 0 0 0
194 0 5 0 -14.143630623284212 10.106915510753224 -48.26018981280152 0 0 0
198 0 5 0 -10.099767111021576 10.108211923074073 -48.25405810831132 0 0 0
200 0 5 0 -12.123269340370447 10.107379218430209 -46.25845179160942 0 0 0
226 0 5 0 -14.143794660056843 14.150816152414684 -48.25933813665295 0 0 0
227 0 5 0 -14.14492349698249 12.12772946647366 -46.26260393599861 0 0 0
229 0 5 0 -12.12085578551985 12.129069273802903 -48.25758369255423 0 0 0
230 0 5 0 -10.09901191234904 14.150799802665873 -48.251812553821594 0 0 0
231 0 5 0 -10.102294225279238 12.128159945504775 -46.25371440427776 0 0 0
232 0 5 0 -12.123316294476384 14.14873742939035 -46.257852165337376 0 0 0
204 0 5 0 -8.083096623235319 10.108997046619763 -46.24864551096389 0 0 0
236 0 5 0 -8.081789910631585 14.149194037454873 -46.246247475139945 0 0 0
201 0 5 0 -8.079830033495718 8.088213612873842 -48.24996435609389 0 0 0
205 0 5 0 -4.04150831011572 8.090046221378843 -48.241589995831006 0 0 0
207 0 5 0 -2.0252678849803503 8.09112734562156 -46.237969907142876 0 0 0
233 0 5 0 -8.078890977952021 12.130175187967735 -48.248346693189994 0 0 0
203 0 5 0 -6.063968216948659 8.090553560124846 -46.245221757588844 0 0 0
202 0 5 0 -6.059988706717561 10.110603608814582 -48.244769914474055 0 0 0
206 0 5 0 -2.0242208376438455 10.111629769327696 -48.23752596266303 0 0 0
208 0 5 0 -4.044822573046577 10.110584239188743 -46.238466962067214 0 0 0
234 0 5 0 -6.059536587181235 14.150754131118259 -48.24185665780915 0 0 0
235 0 5 0 -6.063589196752139 12.129489061655285 -46.241134291869514 0 0 0
237 0 5 0 -4.0416948140510005 12.13129358008556 -48.238605571054315 0 0 0
238 0 5 0 -2.0239979462334268 14.150896081999361 -48.2348077123889 0 0 0
239 0 5 0 -2.026424630075872 12.130107205175149 -46.23292086097697 0 0 0
240 0 5 0 -4.04444889180478 14.149762877624141 -46.23531654193192 0 0 0
212 0 5 0 -0.007723884413774789 10.110998037039757 -46.23399005369479 0 0 0
241 0 5 0 -0.007426092457956223 12.131520980427954 -48.234718529399984 0 0 0
244 0 5 0 -0.007767989090932951 14.149586290877647 -46.231257383337095 0 0 0
209 0 5 0 -0.0063415212838804115 8.090673728510355 -48.23735120313985 0 0 0
211 0 5 0 2.011609839487332 8.09093063763514 -46.23593259663969 0 0 0
213 0 5 0 4.027533154323196 8.090779299677843 -48.2393905481016 0 0 0
215 0 5 0 6.0474447989821245 8.090403924045491 -46.24051211172524 0 0 0
217 0 5 0 8.063537001949195 8.08989135578902 -48.2463841404567 0 0 0
210 0 5 0 2.009500816335636 10.111405995569378 -48.23678341686202 0 0 0
214 0 5 0 6.044168635494198 10.110676451040552 -48.24167524139715 0 0 0
216 0 5 0 4.027991764825854 10.110563161523835 -46.236486808547966 0 0 0
242 0 5 0 2.009811106256784 14.151379105480196 -48.233963198580405 0 0 0
243 0 5 0 2.010019670939495 12.130075071356856 -46.23278951695369 0 0 0
245 0 5 0 4.026166256910448 12.131162774553857 -48.237857453416176 0 0 0
246 0 5 0 6.04480408140774 14.151093444778517 -48.240539710544 0 0 0
247 0 5 0 6.0463501767629 12.13027541072297 -46.24025609626797 0 0 0
248 0 5 0 4.028808321743271 14.150179824835835 -46.23520465848258 0 0 0
220 0 5 0 8.066392262608808 10.109367212847882 -46.24548606087354 0 0 0
249 0 5 0 8.063137460766987 12.130212037792527 -48.24518024401621 0 0 0
252 0 5 0 8.06698747004027 14.15044444620186 -46.24458993712514 0 0 0
193 0 5 0 16.152826418356796 8.085657288154115 -48.25983517125496 -1 0 0
219 0 5 0 10.087613769542953 8.088851042900838 -46.25122668348886 0 0 0
221 0 5 0 12.105595581117282 8.087810086021024 -48.25644101795991 0 0 0
223 0 5 0 14.130280809715044 8.088582405290062 -46.26073149264854 0 0 0
228 0 5 0 16.152879937643124 14.148479684572829 -46.262718953642285 -1 0 0
196 0 5 0 16.152582824917616 10.107191450902096 -46.26397371067199 -1 0 0
225 0 5 0 16.15280003025717 12.128842562921458 -48.26194674771258 -1 0 0
218 0 5 0 10.083428354155725 10.10916179978669 -48.2509498720365 0 0 0
222 0 5 0 14.128877628350955 10.107452415421115 -48.261429190560285 0 0 0
224 0 5 0 12.109165657419261 10.107981177622197 -46.25773533705724 0 0 0
250 0 5 0 10.083343713290752 14.15043570338575 -48.25048202758266 0 0 0
251 0 5 0 10.087446360294612 12.129165357284865 -46.25109635662783 0 0 0
253 0 5 0 12.105048759848557 12.12901514876253 -48.256651975026244 0 0 0
254 0 5 0 14.128157763455379 14.15037484721257 -48.25829341393331 0 0 0
255 0 5 0 14.130470726141365 12.126921645715308 -46.263100088933435 0 0 0
256 0 5 0 12.107490649044824 14.148634829837986 -46.25681950744266 0 0 0
258 0 5 0 -14.146919479550832 -14.12849362764004 -44.30143138189701 0 0 0
262 0 5 0 -10.106430783663017 -14.12974151898824 -44.29076217098475 0 0 0
264 0 5 0 -12.130104630675813 -14.133398361178207 -42.33693045223035 0 0 0
290 0 5 0 -14.148760984255132 -10.091309611609631 -44.28858952361861 0 0 0
291 0 5 0 -14.151031534951812 -12.116340162922983 -42.33386380529472 0 0 0
293 0 5 0 -12.127926928529634 -12.109667320546263 -44.29088717920126 0 0 0
294 0 5 0 -10.107448090419611 -10.089865386402717 -44.283402979342455 0 0 0
295 0 5 0 -10.110698116708678 -12.112037893755177 -42.32891874742387 0 0 0
296 0 5 0 -12.131402461615021 -10.092425764551301 -42.32675208018262 0 0 0
514 0 5 0 -14.151853581793313 -14.144182847580984 -40.341708840690394 0 0 0
516 0 5 0 -10.112954885092092 -14.136791061751094 -40.33736878274779 0 0 0
530 0 5 0 -14.157649474308743 -10.103573264756522 -40.337676994132025 0 0 0
531 0 5 0 -12.133126727316554 -12.11878638955068 -40.337592795963644 0 0 0
532 0 5 0 -10.11896927531367 -10.09481789829565 -40.32564847749833 0 0 0
268 0 5 0 -8.08868243728771 -14.130289022348977 -42.327946764091514 0 0 0
263 0 5 0 -10.112406836574937 -16.15192182174723 -42.335299354557165 0 0 0
259 0 5 0 -14.145645842362079 -16.149832556627267 -42.353556656379695 0 0 0
261 0 5 0 -12.124994146841281 -16.150755049126044 -44.30104463343789 0 0 0
1286 2 2 0.5564 -11.224855583645683 -15.888176294128904 -37.805499992878524 0 0 0
1309 10 2 0.5564 -11.497317542517893 -13.641237775752455 -38.62947453547888 0 0 0
1311 11 1 -1.1128 -8.138324060424951 -10.073602629061881 -37.96826307699576 0 0 0
517 0 5 0 -8.097478497093595 -16.146826235649826 -40.33551718445237 0 0 0
515 0 5 0 -12.138083082077703 -16.15559011871612 -40.33975604574665 0 0 0
1308 10 1 -1.1128 -11.916651015445773 -14.084164866575364 -37.8917707518999 0 0 0
300 0 5 0 -8.090720470164035 -10.093218294970091 -42.319517461338236 0 0 0
533 0 5 0 -8.096283931776314 -12.115883079780097 -40.32561527887074 0 0 0
1306 9 2 0.5564 -13.438657084717427 -13.040273446786001 -37.92330370825547 0 0 0
1305 9 1 -1.1128 -14.093408545167803 -12.342240828471889 -37.90648551794312 0 0 0
1307 9 2 0.5564 -13.581824997367518 -11.534289091320682 -37.864914657511626 0 0 0
265 0 5 0 -8.085648043867478 -16.150917382689194 -44.28542739567858 0 0 0
1312 11 2 0.5564 -8.346711352773319 -10.02242945723203 -38.901101690153745 0 0 0
297 0 5 0 -8.0855187801308 -12.109807828368742 -44.28267855872354 0 0 0
1330 17 2 0.5564 -14.790305125932273 -8.393893927217993 -38.69854137807509 0 0 0
1332 18 1 -1.1128 -12.33866680938856 -10.16688255268908 -37.87803768923075 0 0 0
1334 18 2 0.5564 -12.921788114716993 -9.408328543674648 -37.84980251062588 0 0 0
1329 17 1 -1.1128 -14.316896854530118 -8.226515381139265 -37.883617535821514 0 0 0
266 0 5 0 -6.064077161103867 -14.13036352670104 -44.27928304156807 0 0 0
270 0 5 0 -2.027495550257915 -14.131145692100612 -44.27220591762478 0 0 0
271 0 5 0 -2.02839245413893 -16.149930635663566 -42.307157617600865 0 0 0
272 0 5 0 -4.046512623796576 -14.13006191356632 -42.31003563456591 0 0 0
298 0 5 0 -6.065557872889811 -10.09288232004675 -44.276535943739916 0 0 0
299 0 5 0 -6.066869405345646 -12.113207507737304 -42.31666163904088 0 0 0
301 0 5 0 -4.045077719616331 -12.113084919090614 -44.27583204010867 0 0 0
302 0 5 0 -2.022821661621589 -10.092652996745882 -44.27190345660742 0 0 0
303 0 5 0 -2.028428815388255 -12.111601651821196 -42.310517659006685 0 0 0
304 0 5 0 -4.044601278901474 -10.099075398229258 -42.316404223508066 0 0 0
518 0 5 0 -6.072609143172603 -14.131297719962413 -40.316547791876424 0 0 0
520 0 5 0 -2.0260610870228604 -14.128242380302988 -40.302689861983986 0 0 0
534 0 5 0 -6.071442242308961 -10.096134853313556 -40.32114190655356 0 0 0
535 0 5 0 -4.046401430946611 -12.110595887560729 -40.30418687273579 0 0 0
536 0 5 0 -2.0228409185582117 -10.091900293294131 -40.30572547365891 0 0 0
269 0 5 0 -4.045552262734719 -16.150189320236667 -44.27371862205933 0 0 0
1294 5 2 0.5564 -0.770593284057115 -13.878824015434258 -37.65640461928128 0 0 0
267 0 5 0 -6.068113359136975 -16.149511294792266 -42.319869939126896 0 0 0
276 0 5 0 -0.010401064758924508 -14.132483231285127 -42.313689688148735 0 0 0
273 0 5 0 -0.008172344689351392 -16.151008674342016 -44.27102072951852 0 0 0
519 0 5 0 -4.051389178274384 -16.151122670139493 -40.31026870403155 0 0 0
308 0 5 0 -0.002486201945946717 -10.090411231714953 -42.31000968409692 0 0 0
305 0 5 0 -0.00570095238356916 -12.110591530486541 -44.269676202439925 0 0 0
521 0 5 0 -0.0049391737309092635 -16.146334033807236 -40.304533935347976 0 0 0
1313 11 2 0.5564 -7.403074746908906 -9.471599207108863 -37.85323186016995 0 0 0
1318 13 2 0.5564 -0.8639729066861769 -9.959645136021143 -37.75322619881675 0 0 0
537 0 5 0 -0.004694588221125323 -12.109754240031139 -40.32836925600266 0 0 0
551 0 5 0 -4.046960172587743 -8.089590389846359 -40.334580933508605 0 0 0
1335 19 1 -1.1128 -6.1225222036269 -8.133337245948303 -37.83456690445588 0 0 0
274 0 5 0 2.014532810032352 -14.130549887718669 -44.26904609226761 0 0 0
275 0 5 0 2.0131940937555433 -16.152632220176997 -42.311938287755424 0 0 0
278 0 5 0 6.056020936698823 -14.13063910946873 -44.27501606123726 0 0 0
280 0 5 0 4.04076495124581 -14.131827587595742 -42.314793472167835 0 0 0
306 0 5 0 2.017498591072928 -10.08977213578353 -44.27095911726077 0 0 0
307 0 5 0 2.018180506918112 -12.105809557573618 -42.316014448415075 0 0 0
309 0 5 0 4.038119895841861 -12.10982903614598 -44.27063231062493 0 0 0
310 0 5 0 6.056311636724657 -10.090132459389453 -44.2690028550948 0 0 0
311 0 5 0 6.060546977592617 -12.111952291599723 -42.310069390089865 0 0 0
312 0 5 0 4.037800744129193 -10.091036641310128 -42.307198685435175 0 0 0
522 0 5 0 2.0158373817556647 -14.121958756854712 -40.33773794435841 0 0 0
524 0 5 0 6.059862818644883 -14.13312180005834 -40.30742553825891 0 0 0
538 0 5 0 2.0172339029665602 -10.098368250739531 -40.29589365724797 0 0 0
539 0 5 0 4.041434762449201 -12.113090134631163 -40.318621154789916 0 0 0
540 0 5 0 6.060710168318716 -10.090145963097545 -40.3078228855654 0 0 0
277 0 5 0 4.033491108583816 -16.150743934272292 -44.2731365298444 0 0 0
279 0 5 0 6.0558723637969685 -16.15098423102174 -42.313128235458066 0 0 0
1324 15 2 0.5564 6.215848331205854 -12.327651304729546 -38.754832267044186 0 0 0
313 0 5 0 8.07400704408939 -12.110805122214304 -44.27573241004727 0 0 0
1298 6 2 0.5564 1.8447256437295039 -14.653362912825354 -37.70477010995005 0 0 0
1293 5 1 -1.1128 0.1578004609380898 -13.90218677490765 -37.88829053952444 0 0 0
1296 6 1 -1.1128 2.7727970531169075 -14.825135909709788 -37.54536697636698 0 0 0
1323 15 1 -1.1128 6.158194539520718 -11.957604315428894 -37.873938909103146 0 0 0
284 0 5 0 8.077626244485591 -14.134163201582886 -42.314914942177666 0 0 0
523 0 5 0 4.032731933282053 -16.1474795625406 -40.30911986192192 0 0 0
281 0 5 0 8.070628839413923 -16.150188905898084 -44.28297848129005 0 0 0
1322 14 2 0.5564 3.2904278708404098 -13.066934429636415 -37.58872377981157 0 0 0
1295 5 2 0.5564 0.3827433684505912 -12.989762282903737 -38.070263278199164 0 0 0
1325 15 2 0.5564 5.235650919671127 -12.048402749966247 -37.63540004996419 0 0 0
513 0 5 0 16.15617312914183 -16.154775004494166 -40.37208624223957 -1 0 0
541 0 5 0 8.085349160014534 -12.116026072170934 -40.31468961356442 0 0 0
316 0 5 0 8.078503151361348 -10.091592401014303 -42.31022041779387 0 0 0
260 0 5 0 16.15250359112298 -14.130465897318794 -42.344885913844365 -1 0 0
289 0 5 0 16.150947569477097 -12.10949021375632 -44.2958974422004 -1 0 0
292 0 5 0 16.149989604267077 -10.096153055158204 -42.32920020235378 -1 0 0
257 0 5 0 16.151903276756062 -16.151270127852392 -44.304079290290105 -1 0 0
529 0 5 0 16.15052641777375 -12.125444310498702 -40.32779637084913 -1 0 0
282 0 5 0 10.090673102257105 -14.130102443963382 -44.2872840947696 0 0 0
286 0 5 0 14.130551593963004 -14.130283988225088 -44.297579594429195 0 0 0
288 0 5 0 12.113701223523512 -14.13573181903085 -42.334167035476895 0 0 0
314 0 5 0 10.092994234064584 -10.09073787601397 -44.2765635786765 0 0 0
315 0 5 0 10.095680683777035 -12.115905754515522 -42.31983550900221 0 0 0
317 0 5 0 12.111217930242466 -12.110445538652648 -44.2864756668721 0 0 0
318 0 5 0 14.13051958859464 -10.090829588554705 -44.28657452782437 0 0 0
319 0 5 0 14.134023470111332 -12.115213011640648 -42.33107577136901 0 0 0
320 0 5 0 12.115425226461317 -10.093815496758808 -42.31987067202772 0 0 0
526 0 5 0 10.105696011838255 -14.143212635028231 -40.314534917259 0 0 0
528 0 5 0 14.137404962746405 -14.145763188549578 -40.3447854381793 0 0 0
542 0 5 0 10.102279608945322 -10.097004608544289 -40.31385045801614 0 0 0
543 0 5 0 12.117534434570556 -12.125485037336759 -40.33391564418467 0 0 0
544 0 5 0 14.139520196291292 -10.10118876672181 -40.325632667870096 0 0 0
285 0 5 0 12.110500665223238 -16.1515557377847 -44.297754857764446 0 0 0
287 0 5 0 14.132972862239063 -16.15596333896381 -42.34778380282144 0 0 0
1352 24 2 0.5564 11.488467512413445 -9.908037648657883 -38.50143896710968 0 0 0
283 0 5 0 10.094858332086561 -16.14997022359533 -42.33264867109527 0 0 0
525 0 5 0 8.084304564681497 -16.157526811894048 -40.31641019323386 0 0 0
1281 1 1 -1.1128 15.452661637930351 -15.14527150055451 -37.63944337182772 -1 0 0
1350 24 1 -1.1128 12.186109693617894 -10.194036024136768 -37.911750780451705 0 0 0
1326 16 1 -1.1128 13.976491005353685 -12.296309297474886 -37.91027547725511 0 0 0
1327 16 2 0.5564 13.371856565144107 -13.03832242544496 -37.902177803964214 0 0 0
1328 16 2 0.5564 13.409908254199166 -11.525359658699522 -37.939473313489444 0 0 0
4929 0 3 1 16.089873837628716 -12.996196296999722 -37.69387557827246 0 0 0
1282 1 2 0.5564 14.503023080010665 -15.255973091708215 -37.68595815959868 -1 0 0
1304 8 2 0.5564 12.005557086255056 -15.425252075177301 -37.92277783335337 0 0 0
1283 1 2 0.5564 15.80111358772996 -16.034895996781035 -37.697592852828116 -1 0 0
1302 8 1 -1.1128 12.662267497645663 -14.807812051515373 -37.60070468964071 0 0 0
323 0 5 0 -14.148882123264864 -8.074079185751636 -42.325645201203464 0 0 0
547 0 5 0 -12.135665500170933 -8.076821145410042 -40.317663967963696 0 0 0
322 0 5 0 -14.147494692975862 -6.0512038953322715 -44.28253942030115 0 0 0
325 0 5 0 -12.127444299806815 -8.07141155561469 -44.28429596255093 0 0 0
326 0 5 0 -10.105055654777232 -6.052003284672076 -44.27967398185936 0 0 0
327 0 5 0 -10.111151612405857 -8.071606773212933 -42.31900000675802 0 0 0
328 0 5 0 -12.126104071647017 -6.053759877891989 -42.32276063716838 0 0 0
354 0 5 0 -14.147567388745777 -2.0119004372310854 -44.28525359682062 0 0 0
355 0 5 0 -14.149265748888055 -4.029088532720445 -42.32385328177394 0 0 0
357 0 5 0 -12.125915600657407 -4.031996960942224 -44.280712719357105 0 0 0
358 0 5 0 -10.104680786424517 -2.014167670843178 -44.28077727889615 0 0 0
359 0 5 0 -10.104456717986912 -4.032883668620856 -42.318432944445355 0 0 0