LAMMPS data file via write_data, version 2 Aug 2023, timestep = 1000000, units = real

1491 atoms
5 atom types
686 bonds
1 bond types
343 angles
1 angle types

-12.120000000000001 12.120000000000001 xlo xhi
-12.120000000000001 12.120000000000001 ylo yhi
-28.28 28.28 zlo zhi

Masses

1 15.9994
2 1.008
3 28.99
4 35.453
5 26.9815

Pair Coeffs # lj/cut/tip4p/long

1 0.185199 3.1589
2 0 0
3 0.0469 2.4299
4 0.15 4.0447
5 11.697 2.574

Bond Coeffs # harmonic

1 0 0.9572

Angle Coeffs # harmonic

1 0 104.52

Atoms # full

478 16 1 -1.1128 -8.709174665954686 -10.004944688490037 -6.430740535449217 0 0 0
86 0 5 0 -10.991823234175193 -10.04490568552522 -8.958014777320951 0 0 0
484 18 1 -1.1128 -7.087572477725619 -7.664035039554313 -6.517285041854106 0 0 0
451 7 1 -1.1128 -11.087732806962787 -8.371877574951325 -6.591967938440583 1 0 0
544 38 1 -1.1128 -8.937475803738714 -5.7059857522861614 -6.675861092266146 0 0 0
545 38 2 0.5564 -9.353113912031635 -5.679930758272951 -5.814009027434844 0 0 0
452 7 2 0.5564 -10.425690835918658 -9.006566580127279 -6.866043216235621 1 0 0
480 16 2 0.5564 -8.200701727816657 -9.194198637172796 -6.450514249022354 0 0 0
485 18 2 0.5564 -6.259204807318839 -7.203602348002777 -6.65167252891669 0 0 0
479 16 2 0.5564 -8.097548716798519 -10.679081367774119 -6.726884652475791 0 0 0
546 38 2 0.5564 -8.171152119408001 -5.1388716819218105 -6.5899698709210135 0 0 0
486 18 2 0.5564 -7.759340678563479 -7.001937994364364 -6.680291539442519 0 0 0
1153 241 1 -1.1128 -6.701026269101707 -4.306206779778093 -6.504654578132569 0 0 0
1045 205 1 -1.1128 -11.158393586915386 -4.101456416405392 -6.571024432602617 0 0 0
1154 241 2 0.5564 -6.1308655663214875 -4.933096390193549 -6.059490742032068 0 0 0
1155 241 2 0.5564 -6.979291877570205 -3.7032952080434147 -5.815240331413649 0 0 0
1047 205 2 0.5564 -11.680075378490768 -4.903153549179211 -6.534294424694076 0 0 0
1046 205 2 0.5564 -10.35651979727608 -4.357597809497666 -7.026703051066831 0 0 0
291 0 5 0 -9.026371186246383 -3.9821208471955973 -8.898056066854272 0 0 0
100 0 5 0 -6.783199440567306 -5.985153138434144 -8.859852810400051 0 0 0
99 0 5 0 -8.869565423799578 -8.083347556649889 -8.93188193699464 0 0 0
88 0 5 0 -6.846800650940927 -10.044427317965708 -8.912752136960624 0 0 0
98 0 5 0 -10.894916130688554 -6.129881647494575 -8.936334937006007 0 0 0
55 0 5 0 -6.770171589025325 -7.9766080222495805 -11.023889198589329 0 0 0
56 0 5 0 -8.905573584491579 -6.074085315408648 -10.913472252936387 0 0 0
219 0 5 0 -10.93177804492889 -4.084254773699238 -10.964361968269108 0 0 0
223 0 5 0 -6.831324767279803 -4.109662056128739 -10.947022764512065 0 0 0
32 0 5 0 -8.881670417103166 -9.99694207260236 -10.980420540229918 0 0 0
51 0 5 0 -10.958782255718637 -8.084296432176322 -11.082548017706003 0 0 0
30 0 5 0 -6.721844652255644 -10.045024727722257 -12.954127178821329 0 0 0
222 0 5 0 -6.8549125652772 -2.0925870107715556 -12.874173086682974 0 0 0
218 0 5 0 -10.84095958461179 -2.0414691973426655 -13.012807252052472 0 0 0
292 0 5 0 -6.859334289423671 -1.9546436736169863 -8.994965848706798 0 0 0
221 0 5 0 -8.88740741816413 -4.064125758865032 -12.98812033756605 0 0 0
224 0 5 0 -8.806642863520135 -2.053774067221985 -10.952681570411391 0 0 0
290 0 5 0 -10.96474351437103 -2.032268739306121 -8.96276562938898 0 0 0
50 0 5 0 -10.954203858816056 -6.034334101002602 -12.970035630642455 0 0 0
54 0 5 0 -6.814638450422318 -5.955540956682354 -13.005584676897605 0 0 0
53 0 5 0 -8.8133750549796 -7.9634051634507905 -13.081047753598918 0 0 0
26 0 5 0 -10.844842329880006 -9.9725359413274 -13.101521484998086 0 0 0
36 0 5 0 -4.747488088930662 -10.015014021051405 -10.905460206959717 0 0 0
481 17 1 -1.1128 -4.862366428901185 -10.09105769954814 -6.356009022992801 0 0 0
547 39 1 -1.1128 -4.539532596144052 -5.9550334347025835 -6.456267171862573 0 0 0
101 0 5 0 -4.8060118794276905 -7.953305374449713 -8.869414090167613 0 0 0
60 0 5 0 -4.791812499389327 -6.020709393911916 -10.8984035611595 0 0 0
225 0 5 0 -4.797312444791694 -3.989401394510046 -13.10269927545857 0 0 0
57 0 5 0 -4.692252477297021 -7.9909001460755515 -12.903456039467397 0 0 0
1048 206 1 -1.1128 -8.899931188170289 -1.9280070644904428 -6.457034153738738 0 0 0
964 178 1 -1.1128 -4.750664277621592 -2.3012236232569894 -6.429355437193147 0 0 0
228 0 5 0 -4.790140887236647 -2.064718335697651 -10.949481729221615 0 0 0
293 0 5 0 -4.786574419682314 -3.9808385579470142 -8.919820606798414 0 0 0
1050 206 2 0.5564 -8.796639515734036 -2.4279703694421615 -5.64734122409555 0 0 0
1049 206 2 0.5564 -8.115975655279858 -1.3806759149407397 -6.502774028818061 0 0 0
453 7 2 0.5564 -10.859887696996418 -8.163548441528631 -5.685920399620745 1 0 0
1483 0 4 -1.1 -7.566793504000003 -3.0065975220877963 -3.84173814537007 2 -1 0
1470 0 3 1.1 -5.1798496362155815 -1.7905021238863807 -4.110155878816706 1 0 0
523 31 1 -1.1128 -5.999839725971548 -8.92865447597263 -4.198214436850732 4 0 0
524 31 2 0.5564 -6.653900373473666 -8.286996426355913 -4.475154410135881 4 0 0
1474 0 3 1.1 -7.823170996913074 -1.2626247086614515 -1.7146887535076283 2 0 0
965 178 2 0.5564 -5.25658665291195 -3.0709574727596616 -6.689685349213413 0 0 0
641 70 2 0.5564 -8.215603416009593 -8.232851391404768 -1.7044412870921923 3 0 0
640 70 1 -1.1128 -7.667357494491992 -7.448248705727586 -1.6978134555156745 3 0 0
874 148 1 -1.1128 -10.030668795000397 -1.0628667719460192 -1.9695095768445057 2 0 0
483 17 2 0.5564 -5.635083870481859 -10.433777640101727 -6.805080738098949 0 0 0
594 54 2 0.5564 -6.957965240549115 -4.919391063601028 -3.2694097837316156 3 -1 0
592 54 1 -1.1128 -6.481851212365901 -5.744608660146465 -3.361893901949095 3 -1 0
593 54 2 0.5564 -6.857006031313143 -6.314661447176 -2.690684020106022 3 -1 0
876 148 2 0.5564 -10.696116940071718 -0.37610137213288763 -1.9276632188984764 2 0 0
875 148 2 0.5564 -10.362857090329857 -1.7541469213977041 -1.396789278035057 2 0 0
642 70 2 0.5564 -7.272006391657692 -7.439085141744849 -0.8261175354090073 3 0 0
1052 207 2 0.5564 -10.950393803280141 -7.729891672698205 -3.5384931266432176 3 0 0
610 60 1 -1.1128 -10.166543036494744 -4.716000674521429 -3.6758041543528384 4 -1 0
612 60 2 0.5564 -10.461563182863848 -4.81077787483069 -2.770152023860288 4 -1 0
1051 207 1 -1.1128 -10.372672722754562 -7.385542890229729 -4.2195821167602094 3 0 0
611 60 2 0.5564 -9.356943276969263 -4.209231511057579 -3.6126805727966724 4 -1 0
1053 207 2 0.5564 -10.064520829243419 -6.548487608357068 -3.872276179952302 3 0 0
900 156 2 0.5564 -5.864787354822437 -0.7249643292918451 -6.643263523238796 0 0 0
1305 291 2 0.5564 -6.99001287670914 -10.081156110713817 -1.7689373831267712 4 1 0
570 46 2 0.5564 -9.176883167237118 -5.647087199949716 -1.130790604856994 4 0 0
568 46 1 -1.1128 -10.123129165843267 -5.5789721216487935 -1.0033821597264039 4 0 0
569 46 2 0.5564 -10.247546584563954 -4.730511028503815 -0.5781017535549617 4 0 0
1303 291 1 -1.1128 -7.8788968872421385 -10.414398184420586 -1.6461058193615834 4 1 0
549 39 2 0.5564 -4.020513712509181 -5.19426829684857 -6.717224281746049 0 0 0
1304 291 2 0.5564 -8.20482740904237 -10.561601048903354 -2.5339825364670654 4 1 0
1012 194 1 -1.1128 -5.254970346704021 -9.966520431120566 -1.7512745147205355 3 -1 0
1014 194 2 0.5564 -4.944212905777869 -10.865900774558664 -1.8551172573450396 3 -1 0
525 31 2 0.5564 -5.5918237001460644 -9.222326116960582 -5.01278204782095 4 0 0
1145 238 2 0.5564 -3.9869794582050715 -4.382164723326641 -3.111978540449066 3 -1 0
39 0 5 0 1.3453032868292796 -12.054823146363132 -10.945664984319663 0 0 0
1401 323 2 0.5564 -10.12316241494751 -10.418457423662806 -3.470843716838263 4 0 0
501 23 2 0.5564 9.003730954689537 -8.033921977705377 -3.261065455491429 2 -1 0
1013 194 2 0.5564 -5.3829613436014405 -9.652000104678885 -2.646218596357313 3 -1 0
896 155 2 0.5564 -11.636197724618569 -0.6765455505357849 -6.506497465949816 0 0 0
1399 323 1 -1.1128 -9.297920755341096 -10.826631814233531 -3.7327297117486125 4 0 0
1400 323 2 0.5564 -9.106765752320873 -10.45143661688322 -4.592337506423735 4 0 0
667 79 1 -1.1128 8.263230395723644 -1.8138749616076744 -1.371414438853249 2 0 0
548 39 2 0.5564 -3.950552852095779 -6.699973530307582 -6.576324247653227 0 0 0
1454 341 2 0.5564 -5.195494218226892 -5.673293509134687 -2.1706500906097235 3 1 0
482 17 2 0.5564 -4.269994381863787 -10.840222288189265 -6.292021683200794 0 0 0
1174 248 1 -1.1128 -11.633587701480053 -9.880643704057846 -2.6095841490504705 3 1 0
29 0 5 0 -8.786448403863675 -11.927989510248876 -13.08302153057664 0 0 0
645 71 2 0.5564 -4.913587213167748 -8.498152406284866 -0.409594314220068 2 -1 0
1070 213 2 0.5564 -11.398588157668005 -3.2903577148196277 -4.156683987391125 4 0 0
93 0 5 0 3.3585293401392136 -12.112900910499206 -9.005838499909988 0 0 0
627 65 2 0.5564 2.278946924895974 -0.3429992462888921 -4.487325449969748 4 0 0
542 37 2 0.5564 -10.059852411830276 -11.354899776187372 -6.4365673913747345 0 0 0
966 178 2 0.5564 -3.912832032514047 -2.4005619374364504 -6.881484476995894 0 0 0
762 110 2 0.5564 7.31556461828213 -9.935150211610765 -0.3168367055955205 3 -1 0
539 36 2 0.5564 2.87851403427205 -3.3372724320822083 -0.1834752594088644 2 0 0
897 155 2 0.5564 -10.147766683848092 -0.8224414320165947 -6.741407702462724 0 0 0
1186 252 1 -1.1128 -7.441208722829254 -2.988979833130227 -0.36103961001224116 4 1 0
1176 248 2 0.5564 -11.303911811731894 -10.084118208803392 -1.7342816728078807 3 1 0
1071 213 2 0.5564 -10.927290716884881 -1.970118861979194 -3.585068579737907 4 0 0
459 9 2 0.5564 12.04551409571058 -10.788567749484173 -6.45713588729957 -1 0 0
1453 341 1 -1.1128 -4.455170814357722 -5.565079100173436 -1.5736336147856884 3 1 0
458 9 2 0.5564 11.652304143277716 -9.326936667643377 -6.487373812531978 -1 0 0
984 184 2 0.5564 12.089684962152855 -2.5084013937896503 -6.721938158959346 -1 0 0
718 96 1 -1.1128 -1.726506242104447 -8.079928709962486 -0.11197103889500117 4 -1 0
1188 252 2 0.5564 -6.48695154439593 -3.0587511036389023 -0.3331253319626678 4 1 0
1069 213 1 -1.1128 -11.71910948903652 -2.4739363079859635 -3.773328775641756 4 0 0
625 65 1 -1.1128 2.1589053404213585 -0.5630898920384374 -3.5635370900483174 4 0 0
760 110 1 -1.1128 6.463354597129597 -10.145919774344293 -0.6983661191635667 3 -1 0
680 83 2 0.5564 9.271897120402015 -10.913403855009793 -4.791159851864523 3 0 0
915 161 2 0.5564 7.763279024267155 -1.7154062213929948 -7.400280102900414 0 0 0
1055 208 2 0.5564 11.03562848103108 -11.292338163820071 -1.8351335946104002 2 0 0
761 110 2 0.5564 6.484432318417801 -11.09468720266862 -0.8233802509719537 3 -1 0
27 0 5 0 -10.806859717869449 -12.001178064202007 -11.0539947688181 0 0 0
630 66 2 0.5564 -4.313136942086176 -1.790847687374774 -0.16142358960843656 2 -1 0
628 66 1 -1.1128 -4.253322794380967 -0.8355560143982785 -0.15302909292302921 2 -1 0
1144 238 1 -1.1128 -3.8076845424547963 -3.5507573474851473 -3.5511170165870745 3 -1 0
1477 0 4 -1.1 5.003377201184402 -3.821174889875379 -4.729034582217019 0 0 0
629 66 2 0.5564 -4.770263589593733 -0.5560746007143654 -0.9085976713621359 2 -1 0
719 96 2 0.5564 -1.5885524258809811 -8.811587651720123 -0.7135349945891442 4 -1 0
445 5 1 -1.1128 1.1873253506650152 -11.989826455982234 -6.516527579349906 0 0 0
31 0 5 0 -6.840286332751914 -11.950669689719975 -10.989210753323988 0 0 0
89 0 5 0 -4.734292601394173 -12.040095742830061 -9.018434687831938 0 0 0
43 0 5 0 5.260690789881596 -12.070435316134931 -11.022282325957281 0 0 0
1086 218 2 0.5564 -2.7191699729203864 -8.42183035328373 -4.62077960976975 3 1 0
1085 218 2 0.5564 -3.7239001717898357 -8.267422198585164 -3.49891954453781 3 1 0
538 36 1 -1.1128 3.5878765176769716 -3.5446183735357697 -0.7917762648080444 2 0 0
45 0 5 0 7.264259867357414 -12.018968456456813 -13.065847578326112 0 0 0
245 0 5 0 -8.770333334306706 -0.0312807229412749 -13.034059576625893 0 0 0
600 56 2 0.5564 -1.8361627026343899 -11.062242371931667 -0.4337969454512093 3 -1 0
1146 238 2 0.5564 -2.9046292323357137 -3.3426379538395032 -3.311469170836582 3 -1 0
1084 218 1 -1.1128 -2.803158734282311 -8.466784093060976 -3.668330719845765 3 1 0
1376 315 2 0.5564 -2.207427844718839 -0.790879783138692 -3.858748212182134 2 0 0
679 83 1 -1.1128 9.10375810615215 -11.005607998755547 -3.8533624161587214 3 0 0
1455 341 2 0.5564 -4.4652753651539445 -6.355009342344554 -1.0331331100625651 3 1 0
1192 254 1 -1.1128 1.7600115267693752 -7.810443842798463 -3.3906813503987676 3 0 0
1194 254 2 0.5564 1.0005625588675002 -7.37515215672419 -3.0034179844150475 3 0 0
1193 254 2 0.5564 1.5978008966439314 -7.78231167984826 -4.333615093204245 3 0 0
1249 273 1 -1.1128 -0.7627362628789004 -6.523417321152468 -3.6645913263572814 4 -1 0
990 186 2 0.5564 2.2661130484011265 -9.679825791518262 -3.1910774869562566 3 1 0
903 157 2 0.5564 -2.1707531200399752 -0.7514336239955808 -6.896167501807131 0 0 0
1158 242 2 0.5564 -0.7984668295026177 -4.796247165931366 -3.1540790842953497 3 0 0
1157 242 2 0.5564 -0.9360459786932169 -3.601486484965311 -2.2345608162604123 3 0 0
1156 242 1 -1.1128 -1.0625178107183675 -3.876254788346465 -3.1427141427428964 3 0 0
540 36 2 0.5564 3.1808110045255136 -4.1036852411500355 -1.4535644107748569 2 0 0
1152 240 2 0.5564 -1.047418570663509 -10.681277359570217 -2.526290328352158 3 0 0
1150 240 1 -1.1128 -1.395888919415653 -9.997521296276764 -1.9542007344077523 3 0 0
1151 240 2 0.5564 -1.9867477640571862 -9.494090838409297 -2.514255585137086 3 0 0
1182 250 2 0.5564 0.20147473056489507 -1.0215335702096837 -3.6545566842331767 3 0 0
1180 250 1 -1.1128 -0.6158306843734921 -1.3804141135731465 -4.000197590550625 3 0 0
918 162 2 0.5564 2.798596511835996 -3.2585761477035646 -4.296908380589544 3 0 0
916 162 1 -1.1128 1.9121111503017705 -3.204883332837173 -3.9398164816562167 3 0 0
917 162 2 0.5564 1.7711648207523454 -4.052950401944314 -3.5189307569706183 3 0 0
1181 250 2 0.5564 -0.6816223645192135 -2.250224816377518 -3.6060768861330867 3 0 0
887 152 2 0.5564 -0.5976844079227858 -1.6003613164705 -5.932519886413511 0 0 0
62 0 5 0 1.2485410915999826 -5.909929067432171 -12.956394970631253 0 0 0
294 0 5 0 -2.724757400207738 -1.9870448422392009 -8.899070096452265 0 0 0
64 0 5 0 -0.7527392195311642 -6.022878777449358 -10.915564766838731 0 0 0
59 0 5 0 -2.772428043243432 -7.958194752193682 -10.864736684387005 0 0 0
232 0 5 0 -0.7889457153602062 -2.000909512861858 -10.925912526013798 0 0 0
885 151 2 0.5564 -1.9026881789019374 -4.494667614702209 -6.684672606823445 0 0 0
889 153 1 -1.1128 1.2558739800486263 -3.960828626858962 -6.555926356488229 0 0 0
883 151 1 -1.1128 -2.692256373733099 -3.956362800564713 -6.629351252872572 0 0 0
884 151 2 0.5564 -3.015671246231461 -4.095483503776024 -5.73925440959019 0 0 0
1058 209 2 0.5564 2.213901598450698 -6.988612629901651 -6.426437531873462 0 0 0
530 33 2 0.5564 -0.4626856319507844 -9.967356932123195 -5.493552822914942 0 0 0
969 179 2 0.5564 -3.614379053072587 -8.77790095634491 -6.421107483989801 0 0 0
531 33 2 0.5564 -1.5112177900047647 -10.678803394658848 -6.321997277625814 0 0 0
551 40 2 0.5564 -0.14133560360900294 -5.2722762610994245 -6.701121859747764 0 0 0
968 179 2 0.5564 -2.1875056857991497 -8.713288440862183 -6.922857504803943 0 0 0
967 179 1 -1.1128 -2.831610670911248 -8.227159995158049 -6.408022285687699 0 0 0
529 33 1 -1.1128 -0.7448876830567569 -10.110182542413662 -6.3969914301958894 0 0 0
550 40 1 -1.1128 -0.8336723635717149 -5.8991891243218815 -6.491600143180737 0 0 0
1059 209 2 0.5564 1.9616997947960373 -8.471542857929396 -6.597341967967103 0 0 0
1057 209 1 -1.1128 1.575418780059869 -7.675066728519484 -6.23312529038632 0 0 0
890 153 2 0.5564 1.2336107957650242 -3.544186934230008 -5.69444723716643 0 0 0
552 40 2 0.5564 -0.4044236953833084 -6.75371390631209 -6.533719964374127 0 0 0
295 0 5 0 -0.7057980796588006 -4.004505278809781 -8.977096109347185 0 0 0
891 153 2 0.5564 0.9790230564447499 -3.273679449910547 -7.162066983328701 0 0 0
102 0 5 0 -2.6852651682278754 -6.002847908577771 -8.838249964731327 0 0 0
104 0 5 0 1.3364332540740365 -5.9593997800261915 -8.898381205073191 0 0 0
103 0 5 0 -0.6999459503484515 -8.013141749320141 -8.974808106205005 0 0 0
90 0 5 0 -2.692575094682858 -9.996387568230015 -8.941855524387668 0 0 0
92 0 5 0 1.2039526653530797 -10.066022499253199 -8.953246942254918 0 0 0
63 0 5 0 1.3054466776414482 -7.949806254027023 -10.97382641231362 0 0 0
34 0 5 0 -2.739940521858204 -10.050501636196149 -12.962143810806731 0 0 0
227 0 5 0 -2.8503119298665727 -3.990392067795853 -10.993599136413982 0 0 0
231 0 5 0 1.272341992920042 -3.9517119630629174 -10.920934452769325 0 0 0
40 0 5 0 -0.7123411168811112 -9.94339885996723 -11.018053193453193 0 0 0
296 0 5 0 1.2648150684102422 -1.999793502721421 -8.947970994312099 0 0 0
886 152 1 -1.1128 -0.8187483077213065 -1.9131351417020144 -6.809754994789739 0 0 0
888 152 2 0.5564 -1.5245234804417 -2.5441833734960646 -6.668772379912122 0 0 0
38 0 5 0 1.2420577022841186 -9.880733386480927 -13.02932481326224 0 0 0
58 0 5 0 -2.771308307908018 -5.968614962808584 -12.980100331767193 0 0 0
230 0 5 0 1.2637466251565856 -2.031554330826619 -12.950002697722779 0 0 0
61 0 5 0 -0.750608605042916 -7.894767156362011 -12.8790267496298 0 0 0
226 0 5 0 -2.732997246573339 -2.0005440708608537 -12.984440421287244 0 0 0
229 0 5 0 -0.7482183873468135 -4.02336031766502 -12.905285163186988 0 0 0
65 0 5 0 3.3976868987296323 -7.899649461386327 -12.94391785832544 0 0 0
297 0 5 0 3.3430157800717906 -3.904414819673998 -8.927583382711607 0 0 0
233 0 5 0 3.3406179247283654 -3.8940571129745347 -13.008602925464343 0 0 0
236 0 5 0 3.327355652502798 -1.943964890219601 -10.980469117835218 0 0 0
44 0 5 0 3.270758584801935 -10.019246169366477 -10.985468213754093 0 0 0
68 0 5 0 3.280855598385825 -5.949446934026358 -10.910298377238588 0 0 0
472 14 1 -1.1128 3.2143862780133006 -10.21423999678976 -6.52620475206067 0 0 0
105 0 5 0 3.296953458077417 -8.007231411744945 -8.967612055173669 0 0 0
490 20 1 -1.1128 3.3932780674589496 -2.0022315232202974 -6.6945427761794205 0 0 0
487 19 1 -1.1128 3.4205622584651083 -5.577429012745207 -6.4656782054204625 0 0 0
473 14 2 0.5564 3.022856963864489 -10.105063916943037 -5.594740216824541 0 0 0
488 19 2 0.5564 2.7997867860432613 -4.862061550324301 -6.603897272033406 0 0 0
1251 273 2 0.5564 -0.8287182265189993 -6.393832689291001 -4.610681004218024 4 -1 0
1250 273 2 0.5564 -1.4961576381304458 -7.099670928423279 -3.4495559580121578 4 -1 0
909 159 2 0.5564 2.034332910403954 -0.8463742879671848 -6.563161144473769 0 0 0
988 186 1 -1.1128 2.6274931640517356 -10.38999305716939 -3.721446936498637 3 1 0
989 186 2 0.5564 3.5759790278994 -10.276437302778644 -3.6603350809239608 3 1 0
1270 280 1 -1.1128 -0.15718226017750564 -11.913975327662893 -3.7844764965259543 4 1 0
1271 280 2 0.5564 0.7646273150987042 -11.852300406893537 -3.534044940288058 4 1 0
492 20 2 0.5564 4.020129530428951 -2.4805953830126675 -6.15188833723969 0 0 0
1082 217 2 0.5564 2.7378047367734277 -6.507827827523735 -2.8761960465800174 4 0 0
1375 315 1 -1.1128 -3.115114445620675 -0.5029731659920664 -3.956052460358225 2 0 0
474 14 2 0.5564 3.803719161901758 -10.967602520552257 -6.5633396608062995 0 0 0
491 20 2 0.5564 3.9364006096842306 -1.4865440957583387 -7.2906371525914 0 0 0
489 19 2 0.5564 4.065179012390236 -5.221047843741084 -5.854362968724027 0 0 0
1197 255 2 0.5564 3.4361571966877893 -0.649242826746692 -1.8677844262962697 3 1 0
1130 233 2 0.5564 7.47221128289082 -12.02342229995553 -3.884316170810638 3 1 0
446 5 2 0.5564 0.49931973195730933 -11.328425752284524 -6.442957174621219 0 0 0
49 0 5 0 11.275467228429902 -8.086161957750157 -13.078390818787623 -1 0 0
572 47 2 0.5564 5.769713415580967 -3.7625357876057706 -2.8735431816974843 2 -1 0
33 0 5 0 -4.715649007111695 -11.99492235813241 -13.007415592487316 0 0 0
1138 236 1 -1.1128 -0.7487793050831715 -3.100374571152686 -0.5920981564159067 3 0 0
1191 253 2 0.5564 10.763002747955715 -0.4440187353711452 -3.143505649335628 1 -1 0
526 32 1 -1.1128 -2.8618033666358853 -12.049067647078601 -6.481810970967087 0 0 0
707 92 2 0.5564 6.078437745583504 -8.931414105134786 -3.7096630211373762 2 0 0
626 65 2 0.5564 2.1823581163781056 -1.5197068727031835 -3.5397357914357297 4 0 0
755 108 2 0.5564 -4.459040371954537 -4.295995731988628 -0.42127501513267485 2 -1 0
494 21 2 0.5564 9.902480321414957 -3.0895373739834033 -6.719608246315992 0 0 0
35 0 5 0 -2.7177801658198346 -12.028945142703847 -10.930079940500214 0 0 0
41 0 5 0 3.2020509385128633 -11.96934642332 -13.050519643082406 0 0 0
300 0 5 0 9.391662014163327 -2.0644526937328638 -8.905612165411377 0 0 0
434 1 2 0.5564 8.858132609945583 -8.751987437784367 -6.866482645824173 -1 0 0
25 0 5 0 11.305990205064324 -12.097754467621876 -13.143494952412777 -1 0 0
902 157 2 0.5564 -2.8114613370176644 -0.1288199898314844 -5.673979295946215 0 0 0
1175 248 2 0.5564 12.063271108646687 -9.102141796114816 -2.4864873634522264 2 1 0
1075 215 1 -1.1128 3.628150757395051 -7.6993202544864285 -0.724643837071972 4 0 0
1039 203 1 -1.1128 5.279387336829272 -0.8275561436770301 -4.095919706909061 3 0 0
519 29 2 0.5564 8.388467269503526 -11.393125326088402 -6.429172008907015 -1 0 0
1195 255 1 -1.1128 4.339180102853389 -0.5628491607321787 -1.562340950439144 3 1 0
1196 255 2 0.5564 4.326744425472609 -0.9172193062382232 -0.6732407240124987 3 1 0
1076 215 2 0.5564 2.9419883059514387 -8.363640648713494 -0.7884856193856971 4 0 0
1216 262 1 -1.1128 -10.658129109801733 -10.508303188112002 -0.22379570906836274 4 0 0
1119 229 2 0.5564 10.285309410625056 -2.41090829924291 -1.1554787647472915 3 -1 0
1077 215 2 0.5564 3.5097551251223624 -7.156331252359117 -1.5039863182686626 4 0 0
235 0 5 0 5.288594241006112 -3.903252915083429 -10.96417019619324 0 0 0
558 42 2 0.5564 10.175912744137904 -0.763353343348157 -6.763470591446256 0 0 0
573 47 2 0.5564 5.424951840277405 -3.7359573388528395 -1.3996608254496092 2 -1 0
708 92 2 0.5564 5.6241246548891475 -9.508632247233333 -2.3859138515733394 2 0 0
668 79 2 0.5564 7.649693255216613 -2.4607728824794153 -1.7197187108779948 2 0 0
1189 253 1 -1.1128 9.974003923142925 -0.9140958046602143 -3.4132429276642706 1 -1 0
500 23 2 0.5564 7.8361435798970245 -7.074066908578127 -3.175563622824061 2 -1 0
467 12 2 0.5564 4.538296808922932 -7.4337170967296595 -6.780845991963434 0 0 0
234 0 5 0 5.347922063249445 -1.888283302102925 -13.021110464943165 0 0 0
1202 257 2 0.5564 6.576784219882078 -6.49720103036809 -0.9897796243393311 2 1 0
962 177 2 0.5564 11.975852797427605 -6.713845413083565 -6.5800340803414405 -1 0 0
571 47 1 -1.1128 6.167600839850924 -3.73103057237584 -2.0035345443428274 2 -1 0
37 0 5 0 -0.7249163664426798 -12.004142768902579 -12.99064237163649 0 0 0
669 79 2 0.5564 8.696313161902035 -1.4529952504173576 -2.1450090204184713 2 0 0
48 0 5 0 7.291474723391562 -10.07264183962998 -11.063849601135214 0 0 0
471 13 2 0.5564 6.521801302515763 -6.736251345049745 -6.46864635847639 0 0 0
961 177 1 -1.1128 11.201366029103827 -6.206045164207697 -6.3380472957277245 -1 0 0
72 0 5 0 7.3108515911549565 -5.9334520522667695 -10.973439571443903 0 0 0
1081 217 1 -1.1128 3.2388556731743154 -5.749745796040227 -2.5753995857174377 4 0 0
240 0 5 0 7.348045830027634 -1.9475505049442097 -11.03651172446528 0 0 0
108 0 5 0 9.360388165621718 -6.023910768316153 -9.022256365952098 0 0 0
46 0 5 0 9.219949879867745 -10.008123803815394 -13.05460240508869 0 0 0
94 0 5 0 5.317044051263383 -9.983975014928637 -9.109380856010064 0 0 0
1203 257 2 0.5564 6.784672605299862 -5.335867474404525 -1.9384535224680413 2 1 0
66 0 5 0 5.3470186821377395 -5.930348204952147 -12.98718953117385 0 0 0
289 0 5 0 11.365450669013516 -4.074402349838324 -9.012519242804213 -1 0 0
237 0 5 0 7.3026580403956105 -3.8172711707375906 -13.020946899445168 0 0 0
457 9 1 -1.1128 11.283670965044417 -10.21027933106422 -6.494898820688355 -1 0 0
220 0 5 0 11.302773753701421 -1.9789339378992352 -10.949039815865815 -1 0 0
476 15 2 0.5564 6.663935046827633 -9.32140661466629 -6.621551947795945 -1 0 0
518 29 2 0.5564 9.85668080234655 -11.349807852233958 -6.795735109002485 -1 0 0
681 83 2 0.5564 9.439593191266823 -10.196029880134516 -3.4686063397439604 3 0 0
895 155 1 -1.1128 -10.813899580088888 -0.18742560298401625 -6.478216320474695 0 0 0
1331 300 2 0.5564 11.560404079659696 -6.460286518196076 -2.4938241909996854 3 0 0
238 0 5 0 9.466265543612879 -1.9205178845914088 -12.973860317018378 0 0 0
299 0 5 0 7.284157629832351 -3.9371065677380543 -9.040642502762783 0 0 0
70 0 5 0 9.330952574108725 -5.983914352823984 -13.1062682729673 0 0 0
493 21 1 -1.1128 9.516932417275612 -3.965420384267172 -6.699023907582238 0 0 0
623 64 2 0.5564 8.86939846373042 -2.752441369429707 -3.947603694916695 1 0 0
982 184 1 -1.1128 11.42906922620913 -1.9093686354743304 -6.3740983296087474 -1 0 0
1265 278 2 0.5564 10.86124685914306 -5.432961224171976 -4.641023059817938 4 0 0
217 0 5 0 11.381913860716901 -3.976737789275199 -13.000294192997885 -1 0 0
1462 0 3 1.1 7.202856795821243 -3.991963443140277 -5.84411794603744 0 0 0
1131 233 2 0.5564 6.229148690964817 -11.362682806354456 -3.3274358305319907 3 1 0
983 184 2 0.5564 11.466566474119071 -2.0351199225880814 -5.425935211495224 -1 0 0
624 64 2 0.5564 9.282304872497841 -4.206853414145282 -3.869578816696784 1 0 0
1264 278 1 -1.1128 10.415045448979336 -5.4113349194313205 -3.7944533189860232 4 0 0
466 12 1 -1.1128 5.172265574496473 -8.137358771269055 -6.6423222980889465 0 0 0
1330 300 1 -1.1128 -12.050796942264979 -7.058508144315981 -2.090140344447819 4 0 0
1366 312 1 -1.1128 10.11549505746953 -8.797864829047725 -1.9140782859614105 3 1 0
1332 300 2 0.5564 -11.544518498251502 -6.507527307773521 -1.493189929050349 4 0 0
470 13 2 0.5564 7.9475147279402805 -6.380947490348811 -6.833335628556245 0 0 0
1266 278 2 0.5564 9.794900348983449 -6.139534715810486 -3.831360771637241 4 0 0
69 0 5 0 7.311361460293442 -8.013803729226847 -12.98784779068647 0 0 0
28 0 5 0 11.308572677711332 -10.12498419125411 -11.08189402254113 -1 0 0
52 0 5 0 11.295319106314425 -6.033681852042698 -10.99426020988724 -1 0 0
1368 312 2 0.5564 9.589956700305603 -9.023760390640714 -1.1466148092254083 3 1 0
1083 217 2 0.5564 3.9330580053167967 -5.647241870202525 -3.2264186380370456 4 0 0
1040 203 2 0.5564 4.723107510954739 -0.763614726789589 -3.3195928039056235 3 0 0
469 13 1 -1.1128 7.087965944525089 -5.991771273266577 -6.672185138583701 0 0 0
239 0 5 0 9.332868315045005 -4.007566571858128 -11.073680445090126 0 0 0
495 21 2 0.5564 10.25539666817011 -4.548605390304995 -6.523482768567557 0 0 0
468 12 2 0.5564 4.637257603476039 -8.920731746984528 -6.514594447524403 0 0 0
42 0 5 0 5.333635851536788 -9.97498360082021 -13.069243050674293 0 0 0
1367 312 2 0.5564 10.765622805999035 -8.176919982616404 -1.5854343892142762 3 1 0
106 0 5 0 5.271191357858846 -5.90107950148822 -9.023595936670752 0 0 0
477 15 2 0.5564 6.333446339634232 -10.796354090261373 -6.536689923791188 -1 0 0
433 1 1 -1.1128 9.06478653370898 -7.917889474770739 -6.444816555566158 -1 0 0
963 177 2 0.5564 10.46267637000074 -6.758880501858201 -6.5928549290732406 -1 0 0
97 0 5 0 11.219748579513169 -8.126884619214529 -8.933674529444197 -1 0 0
96 0 5 0 9.299214579121605 -10.117298575754017 -8.966919334061394 0 0 0
622 64 1 -1.1128 8.5122095314917 -3.638833053264987 -3.8931353248394607 1 0 0
1201 257 1 -1.1128 7.021175189429212 -6.253251709203906 -1.8017079405964314 2 1 0
914 161 2 0.5564 6.472688129857792 -1.2814173821025236 -6.738525616164888 0 0 0
913 161 1 -1.1128 7.1726706353537 -1.9315392697749507 -6.678676380635196 0 0 0
67 0 5 0 5.328774161200216 -7.974788902671016 -11.028243571689496 0 0 0
107 0 5 0 7.355435468242824 -8.050907855586978 -8.962490785437573 0 0 0
71 0 5 0 9.288971849760536 -7.94445350380738 -10.972212521826453 0 0 0
1041 203 2 0.5564 5.240079050998372 -1.751235907964263 -4.343917392834612 3 0 0
1118 229 2 0.5564 11.231696204368438 -2.9558932094716974 -2.2039262042991936 3 -1 0
475 15 1 -1.1128 7.061812193348536 -10.178823593708477 -6.4707093589427656 -1 0 0
435 1 2 0.5564 8.589165930207907 -7.944354854282273 -5.6145709636450665 -1 0 0
706 92 1 -1.1128 5.451352897466074 -9.544884857979685 -3.3266974310954827 2 0 0
499 23 1 -1.1128 8.337855981529795 -7.602330713521265 -3.7964030139568448 2 -1 0
298 0 5 0 5.35776074683505 -1.812425967669575 -9.014218834720785 0 0 0
1117 229 1 -1.1128 11.151429626057075 -2.8041632487169057 -1.262241123957466 3 -1 0
898 156 1 -1.1128 -6.549891493252504 -0.12741885971544814 -6.343561489905 0 0 0
1129 233 1 -1.1128 6.5178937703871105 -12.096432073346119 -3.8700818087519635 3 1 0
87 0 5 0 -8.915352908178352 -12.08604490126053 -9.02610831180801 0 0 0
541 37 1 -1.1128 -10.819477202061679 -11.93005605349178 -6.528306201972632 0 0 0
1054 208 1 -1.1128 10.854814112548143 -12.051725129969842 -1.28117153894168 2 0 0
556 42 1 -1.1128 9.549912619242624 -0.039386772828716526 -6.747860988346311 0 0 0
1377 315 2 0.5564 -3.338789702966348 -0.12313934385273927 -3.1063922570807714 2 0 0
1089 219 2 0.5564 -11.633562053767424 -3.0778376369472955 -0.4724174999356356 3 -1 0
1140 236 2 0.5564 0.12805431438107756 -3.0095389983207284 -0.21905190260874868 3 0 0
517 29 1 -1.1128 9.152743793939525 -11.954254374065313 -6.5604376541044385 -1 0 0
85 0 5 0 11.277992901379674 -12.066646965316677 -8.96869201910854 -1 0 0
303 0 5 0 -8.889865588896052 -0.08238260458910823 -8.996749315581823 0 0 0
91 0 5 0 -0.6945439049833022 -12.051206392187238 -8.9226473504565 0 0 0
1190 253 2 0.5564 9.474609520275127 -0.2737694690151072 -3.9200054752901266 1 -1 0
249 0 5 0 -4.8143713929666925 -0.10185256110301118 -13.041424675438961 0 0 0
1087 219 1 -1.1128 -10.751744905776349 -3.0069256319334583 -0.10693053414673016 3 -1 0
447 5 2 0.5564 1.9489105168393335 -11.508888147607331 -6.840464530523422 0 0 0
1489 0 4 -1.1 -5.934661856480558 -0.05541281540250659 -2.5678664448475876 2 0 0
907 159 1 -1.1128 1.5829898836945016 -0.014631273996123646 -6.419161005556621 0 0 0
463 11 1 -1.1128 5.195827363795279 -12.096379491038034 -6.22837454806159 0 0 0
251 0 5 0 -2.7196839481516166 -0.020411998059073472 -10.98008864519339 0 0 0
901 157 1 -1.1128 -2.742456542954591 -0.03359770749172619 -6.6239280945435635 0 0 0
1017 195 2 0.5564 5.238698018107267 -0.02056545162074903 -5.640722801003639 0 0 0