LAMMPS data file via write_data, version 2 Aug 2023, timestep = 1000000, units = real

1491 atoms
5 atom types
686 bonds
1 bond types
343 angles
1 angle types

-12.120000000000001 12.120000000000001 xlo xhi
-12.120000000000001 12.120000000000001 ylo yhi
-28.28 28.28 zlo zhi

Masses

1 15.9994
2 1.008
3 28.99
4 35.453
5 26.9815

Pair Coeffs # lj/cut/tip4p/long

1 0.185199 3.1589
2 0 0
3 0.0469 2.4299
4 0.15 4.0447
5 11.697 2.574

Bond Coeffs # harmonic

1 0 0.9572

Angle Coeffs # harmonic

1 0 104.52

Atoms # full

478 16 1 -1.1128 -8.615222225772044 -10.116297209008128 -6.31900293826036 0 0 0
86 0 5 0 -10.88229742134908 -10.092537612764678 -9.093892995689126 0 0 0
484 18 1 -1.1128 -6.6868281859019 -7.9076160816599135 -6.550806958324987 0 0 0
451 7 1 -1.1128 -10.952148365736894 -8.034430604723163 -6.572725543725448 1 0 0
544 38 1 -1.1128 -8.81997406112456 -5.809374472008594 -6.595549086010588 0 0 0
545 38 2 0.5564 -7.898282673502852 -5.610150949018566 -6.760130179975687 0 0 0
452 7 2 0.5564 -11.51628105176583 -7.319375148716409 -6.867083866245481 1 0 0
453 7 2 0.5564 -10.604638123514679 -7.735597904073784 -5.732373172567645 1 0 0
480 16 2 0.5564 -8.216935573854325 -9.260942662796921 -6.480216869342627 0 0 0
485 18 2 0.5564 -6.051944591033223 -8.613879941452687 -6.6707318091191405 0 0 0
479 16 2 0.5564 -7.974582022268683 -10.745594848934536 -6.650422934377395 0 0 0
546 38 2 0.5564 -9.019606555772853 -6.531187783162365 -7.191662775776385 0 0 0
486 18 2 0.5564 -6.828617740385461 -7.870457359367968 -5.6049008294663025 0 0 0
1153 241 1 -1.1128 -6.389665888520308 -4.070220507128097 -6.3107277299418145 0 0 0
1045 205 1 -1.1128 -10.793584001486389 -4.164760696326612 -6.164398690426573 0 0 0
1154 241 2 0.5564 -5.792009347439579 -4.80633885643691 -6.441900056319828 0 0 0
1155 241 2 0.5564 -5.821538075356766 -3.300027282519012 -6.293413506091132 0 0 0
1047 205 2 0.5564 -11.332406220549677 -4.871878278664728 -6.519154737820634 0 0 0
1046 205 2 0.5564 -9.9222839102024 -4.550218504291539 -6.071963316826558 0 0 0
291 0 5 0 -8.830402373322194 -3.969642445350823 -8.911740969500231 0 0 0
100 0 5 0 -6.763617520264041 -6.092304546235708 -9.00856762400205 0 0 0
99 0 5 0 -8.836381418523509 -8.10595870866419 -8.972806923186301 0 0 0
88 0 5 0 -6.73772762556605 -10.048005404864554 -9.02036609103591 0 0 0
98 0 5 0 -10.78786339880814 -6.061848169658025 -8.989000901198143 0 0 0
55 0 5 0 -6.788158464694055 -8.068559799898917 -11.10779979140232 0 0 0
56 0 5 0 -8.773159596825282 -5.967329496181822 -11.010209680914734 0 0 0
219 0 5 0 -10.752680016181433 -4.003457360535869 -11.051260628684021 0 0 0
223 0 5 0 -6.78472329899841 -4.000619113243489 -10.885125212502523 0 0 0
32 0 5 0 -8.723005392133592 -10.06476878813903 -10.991768634909437 0 0 0
51 0 5 0 -10.787191982889137 -8.044204591440957 -11.070576917982596 0 0 0
30 0 5 0 -6.817860154466902 -10.052649251194218 -13.123377350230232 0 0 0
222 0 5 0 -6.7763022824976655 -1.8470567666668165 -12.95244372058926 0 0 0
218 0 5 0 -10.851725813521643 -1.9340469895462482 -12.949228074414725 0 0 0
292 0 5 0 -6.70000228110269 -1.992932138754656 -8.964725524853339 0 0 0
221 0 5 0 -8.78828248966377 -3.847041800440829 -13.091946277198808 0 0 0
224 0 5 0 -8.763451615607627 -1.930801554191295 -10.980353436035193 0 0 0
290 0 5 0 -10.752953741116345 -1.9033557933095626 -8.97439643093339 0 0 0
50 0 5 0 -10.786635085654504 -5.9835752491028105 -13.041611930642613 0 0 0
54 0 5 0 -6.720092329342039 -5.918560180198949 -13.05703740816487 0 0 0
53 0 5 0 -8.834629914034936 -7.933741518458559 -13.10600171358382 0 0 0
26 0 5 0 -10.75230362020648 -9.995033526511664 -12.981468562154305 0 0 0
36 0 5 0 -4.793308527490322 -9.975293765646663 -11.100332114567472 0 0 0
101 0 5 0 -4.777601251873062 -8.039605184235322 -8.99967152636989 0 0 0
60 0 5 0 -4.751579476307917 -5.990835481806178 -11.04075317955983 0 0 0
225 0 5 0 -4.779417906310373 -3.9334895984706923 -13.033884048687106 0 0 0
57 0 5 0 -4.802622031621325 -8.01845974407886 -13.151500161243897 0 0 0
1048 206 1 -1.1128 -8.736209970043067 -2.1307671414729867 -6.662605611461036 0 0 0
228 0 5 0 -4.7326690040974855 -1.9252861424425616 -10.943708417360309 0 0 0
293 0 5 0 -4.710737703732551 -4.047039492429861 -8.929800577673735 0 0 0
1050 206 2 0.5564 -9.389386797040249 -2.8065379418882186 -6.481266308620969 0 0 0
1049 206 2 0.5564 -7.904726461128408 -2.6037718378913906 -6.697053136576943 0 0 0
964 178 1 -1.1128 -4.969962896577726 -1.64206437629864 -6.299098657815132 0 0 0
991 187 1 -1.1128 -4.8120966578085875 -9.996544919931454 -6.372885317380867 1 0 0
547 39 1 -1.1128 -4.770962650065025 -6.170499144732344 -6.662073136421707 0 0 0
966 178 2 0.5564 -4.131066475479399 -1.2572489259640067 -6.552974207820453 0 0 0
548 39 2 0.5564 -5.526257262945882 -6.758083463120521 -6.6835035744364655 0 0 0
1279 283 1 -1.1128 -2.7772500491263803 -8.697003303870343 -1.4223497033194188 51 1 0
994 188 1 -1.1128 -3.0528272737841933 -10.199203272544692 -4.107104051007076 54 0 0
1291 287 1 -1.1128 3.0701195269681554 -0.3482348743650843 -3.9816383505860267 52 3 0
1082 217 2 0.5564 -5.931571867260888 -8.467955236926892 -0.4628876708966824 53 1 0
1280 283 2 0.5564 -3.6063365927758886 -9.16104506405158 -1.3063443892714581 51 1 0
899 156 2 0.5564 -7.73092195262301 -0.4145872026840379 -6.219975411311126 0 0 0
1187 252 2 0.5564 -4.383661481387914 -5.593987103873307 -4.4554270181946265 31 1 0
1188 252 2 0.5564 -4.295813897159793 -5.362908700409185 -2.961846909029748 31 1 0
1186 252 1 -1.1128 -4.91455130949802 -5.366139017431088 -3.6922074590297207 31 1 0
996 188 2 0.5564 -3.565495809426568 -10.632050503519222 -4.789755689345275 54 0 0
995 188 2 0.5564 -3.2577074359454823 -9.26946166349538 -4.2062214728027065 54 0 0
1214 261 2 0.5564 -4.147987082390683 -4.321807873597455 -0.1342270587411306 51 0 0
999 189 2 0.5564 -7.230892722386504 -1.3904691860659941 -0.3213330261698374 54 2 0
639 69 2 0.5564 -6.988446212809151 -11.001459082367825 -3.5267160848449617 53 -1 0
637 69 1 -1.1128 -6.41326468033359 -11.659592545450346 -3.9168731470765352 53 -1 0
611 60 2 0.5564 -8.926470452636813 -7.199335572127177 -4.129054201745947 52 -2 0
610 60 1 -1.1128 -9.761352503269375 -7.667452132598898 -4.117939627925327 52 -2 0
793 121 1 -1.1128 -3.683317926874806 -6.012224349690209 -0.9441318447961858 55 0 0
542 37 2 0.5564 -10.05571712372847 -11.445955589726475 -6.557957829558772 0 0 0
710 93 2 0.5564 -4.586488320865942 -2.059395759830813 -1.3059499596341269 51 0 0
1191 253 2 0.5564 -6.34695970752876 -6.711074845628437 -3.7927514423549935 51 0 0
709 93 1 -1.1128 -4.601441611098794 -1.6481457619481408 -2.1701737212497076 51 0 0
711 93 2 0.5564 -5.248480928579953 -2.151484895160657 -2.6643237776586055 51 0 0
1102 224 1 -1.1128 -7.880732623259998 -4.568429096131032 -2.008104894463252 48 1 0
939 169 2 0.5564 4.843784167795272 -6.1098918869944985 -0.4490725617561055 18 0 0
1083 217 2 0.5564 -5.549565529819442 -9.875559349598557 -0.8686187438847738 53 1 0
1081 217 1 -1.1128 -5.509578159737605 -8.96568504896991 -1.1631676914236662 53 1 0
1190 253 2 0.5564 -7.108015532172489 -7.86206342855295 -3.169925353185178 51 0 0
1103 224 2 0.5564 -7.90701730004479 -5.524254362028601 -2.0521330844250936 48 1 0
1104 224 2 0.5564 -7.262565927323251 -4.313560856742595 -2.693075374571934 48 1 0
693 87 2 0.5564 -8.955087960263805 -3.1800316243164586 -2.6846485675524416 40 -1 0
1290 286 2 0.5564 -6.386635795200177 -2.3762852201497173 -4.578690790178024 53 1 0
1289 286 2 0.5564 -5.8365142768021565 -3.644870363391851 -3.9622878683514315 53 1 0
1288 286 1 -1.1128 -6.374986677748214 -2.878705865212334 -3.7640320643680267 53 1 0
692 87 2 0.5564 -9.168817559279548 -1.8573476045333726 -3.389435383353482 40 -1 0
1189 253 1 -1.1128 -6.923527028223007 -7.443420425522946 -4.010712398357135 51 0 0
612 60 2 0.5564 -10.410654021839067 -6.995231173185614 -3.9112557138777606 52 -2 0
1273 281 1 -1.1128 7.443088623310264 -11.283414792471595 -0.5542980829042436 51 1 0
1281 283 2 0.5564 -2.5155324776104457 -8.447943181580397 -0.5359406560739506 51 1 0
998 189 2 0.5564 -6.527533347679719 -1.047210467179142 -1.6172342225188756 54 2 0
549 39 2 0.5564 -4.014327913572263 -6.748568778879352 -6.760147199258787 0 0 0
992 187 2 0.5564 -4.738924506383327 -10.808614495370305 -6.874308546117699 1 0 0
1004 191 2 0.5564 -10.228318180116172 -0.08445278029901249 -5.931026929322046 0 0 0
1316 295 2 0.5564 6.552022736201532 -0.15199109580023484 -1.0972146400518987 50 2 0
965 178 2 0.5564 -5.624710737998404 -1.017289741738248 -6.610794891351813 0 0 0
450 6 2 0.5564 6.190434810667215 -11.317599090798218 -6.625448580527279 0 0 0
459 9 2 0.5564 -12.077540529698775 -9.2619461918831 -6.557323592073712 0 0 0
1184 251 2 0.5564 0.6747435782700385 -0.3478230567850586 -6.343354537325372 13 -1 0
580 50 1 -1.1128 -9.005186009870508 -10.131472318237131 -3.50939090329705 55 1 0
27 0 5 0 -10.782111604609693 -12.09873414915955 -11.03858745836722 0 0 0
983 184 2 0.5564 -11.995051287105795 -2.711967076792974 -6.156598951701404 0 0 0
1199 256 2 0.5564 7.528514399449542 -9.384821598052145 -0.27514707960034535 55 1 0
581 50 2 0.5564 -9.019895255059051 -10.478553626493756 -4.401326483377804 55 1 0
997 189 1 -1.1128 -7.161568070752317 -0.7057591952054406 -0.9866116474893329 54 2 0
1137 235 2 0.5564 -8.3256508767836 -7.7690630226156205 -0.6156905585627371 50 0 0
993 187 2 0.5564 -4.040371042947509 -9.489015881629546 -6.624151188055354 1 0 0
573 47 2 0.5564 -7.355231862471621 -4.939746967900213 -0.3335415453489244 54 0 0
1346 305 2 0.5564 -0.803527729673126 -0.5279776725504091 -4.328000002721014 15 0 0
1005 191 2 0.5564 -10.106837429133897 -0.37102715538007736 -7.4125846719883475 0 0 0
33 0 5 0 -4.782464154470446 -12.107625653006457 -13.090247296627478 0 0 0
582 50 2 0.5564 -9.33944608706824 -9.238522837338357 -3.593795899874979 55 1 0
237 0 5 0 7.368822854046758 -3.967746467099893 -13.082759916458954 0 0 0
43 0 5 0 5.306228606470393 -12.009430888455405 -11.134184828236172 0 0 0
1136 235 2 0.5564 -8.997748064197427 -7.453807808306318 -1.9350823566038422 50 0 0
795 121 2 0.5564 -4.149630948381817 -6.7941866805179245 -0.6486803143833069 55 0 0
1135 235 1 -1.1128 -8.180534375980487 -7.328199856524372 -1.4528311549700275 50 0 0
1486 0 4 -1.1 -5.58523861651527 -11.767123378905591 -0.21656513025649993 54 1 0
875 148 2 0.5564 -3.6418001299198255 -11.984928213435795 -0.8841259172341396 52 0 0
691 87 1 -1.1128 -9.63917172936436 -2.5641627300398655 -2.9473511637297722 40 -1 0
1156 242 1 -1.1128 -11.113376018831332 -5.159014687503274 -3.434104400696277 52 0 0
1157 242 2 0.5564 -10.697336589283172 -4.663055900716107 -4.1392242150766885 52 0 0
1158 242 2 0.5564 -11.292517746051459 -4.507708279520802 -2.755923287828741 52 0 0
455 8 2 0.5564 -6.7070588459931955 -11.97405950164063 -5.693973373917718 0 0 0
25 0 5 0 11.402646040902084 -12.05202082424945 -13.130532536470763 -1 0 0
29 0 5 0 -8.688697593558105 -12.106471888044096 -13.051390758752834 0 0 0
1275 281 2 0.5564 6.4945710255554205 -11.229928638142455 -0.6710295923259889 51 1 0
838 136 1 -1.1128 3.6133674155129927 -2.6640504539562753 -1.180466126491911 38 0 0
1041 203 2 0.5564 9.928765278007532 -11.910675500747745 -3.316279046629504 51 1 0
89 0 5 0 -4.7122343906177235 -11.99371616831004 -9.080954177621932 0 0 0
1069 213 1 -1.1128 -1.9611239831697624 -4.744809007270756 -3.2304485641686767 51 -1 0
1070 213 2 0.5564 -1.1648386749653092 -4.662061356324475 -2.7056965212975093 51 -1 0
596 55 2 0.5564 -1.6535346530170194 -2.205024537578689 -2.8027456923703387 50 -1 0
732 100 2 0.5564 11.207389585006371 -12.085054295663012 -0.7558177032597565 51 0 0
85 0 5 0 11.398556042822214 -11.977313895962311 -9.036768809525073 -1 0 0
794 121 2 0.5564 -2.7963024394417086 -6.3186890359059555 -1.1327264783578344 55 0 0
93 0 5 0 3.2705708006887226 -12.058117407878573 -9.026052617731684 0 0 0
1470 0 3 1.1 -1.6099288402073388 -10.755952420549459 -2.387463864056947 54 1 0
1162 244 1 -1.1128 0.3337683986922606 -3.494064973661217 -1.9751418899987663 52 1 0
678 82 2 0.5564 -8.877996576935885 -0.10082297344599601 -1.41536503799747 54 0 0
1163 244 2 0.5564 0.7698394735205789 -4.099182936353602 -1.3751970012724595 52 1 0
39 0 5 0 1.2211030093921778 -12.11514127645132 -11.025652082312135 0 0 0
493 21 1 -1.1128 9.447188718352164 -4.063290854653086 -6.327781815489263 0 0 0
448 6 1 -1.1128 5.444394583363164 -11.91188911763982 -6.544690216164837 0 0 0
1071 213 2 0.5564 -2.0482987329974245 -3.8986272862243445 -3.669314855021182 51 -1 0
1490 0 4 -1.1 0.19013302503632035 -10.72022180716988 -0.5146063206452357 56 0 0
647 72 2 0.5564 -2.2752906031976727 -6.557698952336546 -3.7829482706956905 52 -1 0
1094 221 2 0.5564 0.5079489241282946 -6.109584374548518 -4.833440417560207 52 2 0
1095 221 2 0.5564 1.5644801549262908 -6.204173794051032 -3.753306605234062 52 2 0
1093 221 1 -1.1128 0.6832999786184897 -6.502676923609534 -3.978483484310097 52 2 0
648 72 2 0.5564 -2.777886434679163 -7.83897775041133 -3.1523810186387253 52 -1 0
646 72 1 -1.1128 -2.656830198314813 -7.408641537214838 -3.9987731526668857 52 -1 0
1198 256 1 -1.1128 7.527356198051231 -8.450961555133377 -0.06505849962045411 55 1 0
896 155 2 0.5564 -0.19536696462299682 -6.665678744642969 -1.870907905007206 9 1 0
895 155 1 -1.1128 -0.38362481369325424 -6.31329735082175 -1.0010628426179347 9 1 0
897 155 2 0.5564 -0.005318421860819447 -6.951745593620426 -0.396478713114186 9 1 0
780 116 2 0.5564 1.9258892570314214 -11.950833780408065 -4.035896343737084 53 1 0
1485 0 4 -1.1 4.513936101287466 -11.09784031587229 -0.7246290440464377 54 1 0
234 0 5 0 5.304236954602231 -2.034115722500764 -13.069834745071304 0 0 0
850 140 1 -1.1128 1.9561699045757759 -4.731725719787244 -0.15928926221591538 26 0 0
852 140 2 0.5564 2.1304251155265277 -5.601919030756252 -0.5179548588172729 26 0 0
661 77 1 -1.1128 2.208444477030642 -3.1687592396519273 -3.8936599810241734 52 1 0
662 77 2 0.5564 2.7202495614130076 -3.977529519496939 -3.908179328733596 52 1 0
1124 231 2 0.5564 3.983094603561773 -5.783720364565493 -2.671866931670171 51 0 0
937 169 1 -1.1128 4.98296985449269 -5.425619258218757 -1.1037641769484412 18 0 0
94 0 5 0 5.365037193698165 -10.044675579896351 -8.98449621658538 0 0 0
1236 268 2 0.5564 0.006063016241910028 -8.604033487622464 -3.859924369839601 53 2 0
1235 268 2 0.5564 0.6463962067156203 -9.84383971974193 -3.272772149671272 53 2 0
1234 268 1 -1.1128 -0.16527914098036972 -9.526093606024924 -3.668377169525012 53 2 0
1125 231 2 0.5564 3.5893579705023995 -6.463809061425342 -3.9658324392812996 51 0 0
663 77 2 0.5564 1.5185701165868453 -3.3328284476835965 -3.2507425545569957 52 1 0
1123 231 1 -1.1128 3.351871297798747 -5.7370276167017185 -3.3899533076054045 51 0 0
1185 251 2 0.5564 2.116899276610257 -0.7202874080145754 -6.614195223042671 13 -1 0
778 116 1 -1.1128 2.2730040924962784 -11.186934441085755 -3.575266316219753 53 1 0
1254 274 2 0.5564 -10.869714384580343 -10.875728939730962 -0.05130046549158872 52 1 0
779 116 2 0.5564 3.2182773635402047 -11.228313711289847 -3.720308088394075 53 1 0
806 125 2 0.5564 2.8758904424686658 -8.20666982697171 -3.4989975341879305 50 -1 0
807 125 2 0.5564 4.250344389971675 -8.51016569701516 -4.05636848823002 50 -1 0
805 125 1 -1.1128 3.3502575084317616 -8.322030280097563 -4.322327202164703 50 -1 0
1471 0 3 1.1 2.1388859851205475 -11.776913296471207 -1.197021113017092 54 1 0
1105 225 1 -1.1128 -2.6789356564458005 -4.286916046315173 -6.5033500078609885 43 1 0
1106 225 2 0.5564 -3.5234540729699244 -4.729180166117988 -6.41748538752353 43 1 0
1107 225 2 0.5564 -2.042578588739208 -4.997740598596562 -6.581128910053812 43 1 0
977 182 2 0.5564 1.8791890652269267 -8.107856098435235 -5.961265005903908 25 0 0
976 182 1 -1.1128 1.3258330627867163 -8.09682496721583 -6.742253478397053 25 0 0
978 182 2 0.5564 0.927334189067815 -8.966784326662031 -6.7663224255190935 25 0 0
903 157 2 0.5564 -1.5509263383331522 -2.969401734698405 -6.61434864356868 0 0 0
968 179 2 0.5564 -2.5615273676234986 -7.820692337782644 -5.834989937326846 0 0 0
62 0 5 0 1.1498010342230145 -5.9506831673439295 -13.017272154504134 0 0 0
294 0 5 0 -2.7465218033620284 -1.9513003684192405 -8.915984259925155 0 0 0
64 0 5 0 -0.7458857131998337 -5.89408068150214 -10.914699824234116 0 0 0
59 0 5 0 -2.830687455216968 -8.000750336087016 -11.019190236112426 0 0 0
232 0 5 0 -0.7608790017245548 -1.896128568163519 -10.90711090548644 0 0 0
885 151 2 0.5564 -0.02184377416448306 -6.783748281491194 -6.717812793723308 0 0 0
889 153 1 -1.1128 1.305951280125224 -3.8737642273075052 -6.616833466094396 0 0 0
883 151 1 -1.1128 -0.5605157022161988 -6.037322714350981 -6.455232868070031 0 0 0
884 151 2 0.5564 -0.16024934183020312 -5.286488488801801 -6.893745734113693 0 0 0
530 33 2 0.5564 -0.37735605598855204 -10.082813431170774 -5.635540568310965 0 0 0
969 179 2 0.5564 -1.949190388016566 -8.517397608573921 -7.031459981616532 0 0 0
531 33 2 0.5564 0.059656918274503014 -10.988065661134462 -6.767543160327985 0 0 0
967 179 1 -1.1128 -2.7823692842185657 -8.19474267357816 -6.687962680136337 0 0 0
529 33 1 -1.1128 -0.5280876449893851 -10.260483724597735 -6.563955952997031 0 0 0
1057 209 1 -1.1128 3.6383673776704506 -6.292209601713436 -6.5205000232093004 0 0 0
890 153 2 0.5564 1.8648573508022515 -3.5796164796124477 -5.897547273816269 0 0 0
295 0 5 0 -0.7195022510059197 -3.8820827212718148 -8.910861793638073 0 0 0
891 153 2 0.5564 1.7151478658064536 -3.5110013337539447 -7.402464534371594 0 0 0
102 0 5 0 -2.7160366533025715 -5.97612068367427 -9.00222458698663 0 0 0
104 0 5 0 1.3001611059401184 -5.998316562436283 -8.992947089671544 0 0 0
103 0 5 0 -0.7639703389264303 -8.064478115797254 -9.065780875268157 0 0 0
90 0 5 0 -2.756299823450423 -10.08706794247338 -9.066415735545073 0 0 0
92 0 5 0 1.2837318039654477 -10.045069343354593 -9.014101566719498 0 0 0
63 0 5 0 1.2491442951986542 -8.054837595535957 -10.996632334933317 0 0 0
34 0 5 0 -2.732812398098264 -10.084584894491634 -13.032869185492423 0 0 0
227 0 5 0 -2.774364380412905 -3.8481986295237736 -10.999740086279784 0 0 0
231 0 5 0 1.2856267648737445 -3.81913178616994 -10.91364221792959 0 0 0
40 0 5 0 -0.7555407489313669 -10.107857260860213 -10.969611227610187 0 0 0
296 0 5 0 1.3143734226313992 -1.9265304266573957 -8.945246686505035 0 0 0
38 0 5 0 1.2469373549838274 -10.048451726193685 -13.05623084659837 0 0 0
58 0 5 0 -2.7719756611421564 -5.894820416530751 -12.967718373719608 0 0 0
230 0 5 0 1.2990863731086895 -1.8344035107482923 -12.993976469860005 0 0 0
61 0 5 0 -0.8603003771030325 -8.079129742590949 -13.090713295076199 0 0 0
226 0 5 0 -2.765005211735835 -1.9277365235762212 -13.06362544754725 0 0 0
229 0 5 0 -0.7385963464818713 -3.8209301582706687 -13.168553978907818 0 0 0
65 0 5 0 3.2388507073689894 -8.03182885480124 -13.041841840855954 0 0 0
297 0 5 0 3.294682301454924 -4.001900969447933 -8.981143929946917 0 0 0
233 0 5 0 3.250387344527943 -3.9348647786114173 -12.937235776165755 0 0 0
236 0 5 0 3.2876956917161286 -1.8541956652341445 -10.949409596865562 0 0 0
44 0 5 0 3.3145633607634957 -10.069983116530425 -11.004653442771112 0 0 0
68 0 5 0 3.1786747939821787 -6.048865912190543 -10.98031395695756 0 0 0
105 0 5 0 3.3366201246618674 -8.05288765017104 -9.016498270700547 0 0 0
490 20 1 -1.1128 3.4666162012378186 -1.889479411375801 -6.5531113082641825 0 0 0
901 157 1 -1.1128 -0.9292593757323584 -2.290243681006674 -6.352691811487709 0 0 0
902 157 2 0.5564 -0.08938098289321256 -2.745115742517853 -6.2895810914589525 0 0 0
1063 211 1 -1.1128 3.3166487547683463 -10.106509046330586 -6.56461312038305 5 0 0
1065 211 2 0.5564 3.283334377038567 -9.631835696998479 -5.734067266770983 5 0 0
773 114 2 0.5564 2.2917427665500467 -8.308642490728742 -0.8479979719533046 53 0 0
772 114 1 -1.1128 2.8480950635718343 -8.331090994472447 -1.6265640378061612 53 0 0
774 114 2 0.5564 3.388937267256468 -9.112609316115279 -1.5126028285057156 53 0 0
491 20 2 0.5564 4.019237140452154 -1.2739281967574057 -6.0714751465035075 0 0 0
1058 209 2 0.5564 2.7849919452245318 -6.5776936293172605 -6.846733626880286 0 0 0
527 32 2 0.5564 -2.1140100274727054 -11.417248406603782 -6.468594972775424 0 0 0
938 169 2 0.5564 5.892241244574572 -5.539579710862406 -1.3804032673333273 18 0 0
851 140 2 0.5564 2.79423113061414 -4.273622925940762 -0.22318408041627436 26 0 0
509 26 2 0.5564 1.9610282814584965 -11.483046649138812 -6.552341894732328 0 0 0
840 136 2 0.5564 4.551710339789701 -2.5069555147975966 -1.2859451421320833 38 0 0
1164 244 2 0.5564 0.5620893915800864 -2.6244058714859038 -1.646799820468165 52 1 0
788 119 2 0.5564 10.851595891760969 -7.378419083208521 -0.5929436769589352 7 0 0
830 133 2 0.5564 0.8558383646130632 -0.04272685521504481 -1.1182618212580815 52 -1 0
1293 287 2 0.5564 2.6870028068841143 -1.190914866471508 -3.7380810590719205 52 3 0
839 136 2 0.5564 3.244019901930892 -2.503027531742685 -2.0487183623364356 38 0 0
91 0 5 0 -0.7644709590394981 -12.094194856690482 -8.998548783983102 0 0 0
489 19 2 0.5564 8.311053296905298 -1.204921750621347 -6.516627361815141 0 0 0
1059 209 2 0.5564 4.1753386181603505 -7.084599750016518 -6.5275351213089525 0 0 0
1064 211 2 0.5564 3.551799830102673 -9.441580572087945 -7.211776750926444 5 0 0
986 185 2 0.5564 4.905154233199068 -11.315480324397281 -2.749583004807182 6 1 0
541 37 1 -1.1128 -10.84835106279388 -11.97390175557845 -6.461598529558331 0 0 0
829 133 1 -1.1128 0.49517101547770087 -0.5943788665152072 -1.8124184664553045 52 -1 0
1008 192 2 0.5564 11.911558183896988 -0.27141624069248826 -3.71481595996982 53 2 0
1480 0 4 -1.1 9.106491155602054 -3.9844341950955986 -0.3573793179745398 53 -1 0
985 185 1 -1.1128 4.873477432954356 -11.500864761983484 -3.6881260316801563 6 1 0
1006 192 1 -1.1128 -12.056627483164059 -1.1775215167696154 -3.8607775620310005 54 2 0
1007 192 2 0.5564 11.692789600779681 -1.4535230329282278 -4.634957415188415 53 2 0
638 69 2 0.5564 -5.744174598057798 -11.818585923348042 -3.2510540999966198 53 -1 0
240 0 5 0 7.366198180466398 -1.94615551032847 -11.008903296156411 0 0 0
1407 325 2 0.5564 9.192027022411128 -0.8473045204568452 -3.0223543593704756 25 2 0
1255 275 1 -1.1128 6.019351400416624 -2.745687506368818 -4.47586766977739 52 0 0
1256 275 2 0.5564 6.484336397910613 -2.604311275122933 -5.300528197744025 52 0 0
1439 336 2 0.5564 6.509237997156218 -2.1082753692295806 -2.606465160989438 53 0 0
1438 336 1 -1.1128 6.3205202383821595 -2.055970311274079 -1.6695047682535082 53 0 0
1130 233 2 0.5564 -10.234460364822665 -10.191023591384864 -2.39805449978236 53 0 0
495 21 2 0.5564 9.979810103263485 -3.2683455862269195 -6.353125662871904 0 0 0
987 185 2 0.5564 5.69312498751848 -11.144540152196317 -4.030901743300805 6 1 0
731 100 2 0.5564 9.806721819719943 -11.558621962946601 -0.9858096944807432 51 0 0
730 100 1 -1.1128 10.634648078017321 -11.344636581447393 -0.5557756662024719 51 0 0
492 20 2 0.5564 4.077928903323805 -2.5376955653483146 -6.902945501736739 0 0 0
97 0 5 0 11.365386023498814 -7.988098934838979 -9.10012053383976 -1 0 0
682 84 1 -1.1128 11.408525737549363 -0.33780469405667946 -0.7243424874136509 53 1 0
434 1 2 0.5564 10.798701574634087 -5.370519666749765 -6.8276016835325315 -1 0 0
45 0 5 0 7.273820752928355 -12.027043804122014 -13.072144532657916 0 0 0
1330 300 1 -1.1128 5.5635922168788445 -8.176986327635664 -6.708075749172873 1 0 0
683 84 2 0.5564 10.754236506098112 -0.177794312034903 -1.4044111132202497 53 1 0
107 0 5 0 7.373022750234811 -8.016031059722929 -9.081009293955452 0 0 0
707 92 2 0.5564 8.004259935905873 -5.426180017789963 -1.0931997123698007 49 0 0
708 92 2 0.5564 7.836516549593953 -6.895934066346202 -1.4150391548473682 49 0 0
1257 275 2 0.5564 5.151852171732851 -3.052832238767521 -4.73908913681643 52 0 0
1440 336 2 0.5564 7.166819252695179 -2.1995576798233296 -1.2458975469416924 53 0 0
706 92 1 -1.1128 7.615582666310853 -6.021079438122226 -1.7345121575394193 49 0 0
487 19 1 -1.1128 7.64882720961038 -1.8959037420722642 -6.500010504904822 0 0 0
1131 233 2 0.5564 -11.640957390244084 -10.537904495116148 -1.9583518520913297 53 0 0
1040 203 2 0.5564 8.818628265886518 -10.889500259519528 -3.4454432231348164 51 1 0
298 0 5 0 5.347741749501787 -1.9589033698779759 -8.973943720594017 0 0 0
1274 281 2 0.5564 7.7737336302531945 -11.571745459536057 -1.4050571554374538 51 1 0
1367 312 2 0.5564 8.779336313736176 -3.0942008557450924 -2.7053281634134896 50 3 0
1129 233 1 -1.1128 -10.872166993408811 -10.028039920444687 -1.7030433629343447 53 0 0
47 0 5 0 9.30603704598042 -12.048806313925578 -11.120601609637804 0 0 0
1366 312 1 -1.1128 8.748932298037342 -2.556636284457262 -3.496740954264441 50 3 0
1376 315 2 0.5564 7.658198301426577 -6.090782896267389 -3.6907111446046312 54 1 0
1375 315 1 -1.1128 7.767354512823933 -6.8226249775141286 -4.297933368787041 54 1 0
1377 315 2 0.5564 7.656143006715594 -6.433416019913369 -5.165328836214622 54 1 0
220 0 5 0 11.435567854523107 -1.9514390699229416 -10.925247676788008 -1 0 0
28 0 5 0 11.399870758382246 -10.107079378378165 -11.084573255935792 -1 0 0
984 184 2 0.5564 12.115322552277007 -1.316843133372683 -6.729941226850024 -1 0 0
72 0 5 0 7.310561224313919 -5.897144125639953 -11.005041971970066 0 0 0
1021 197 1 -1.1128 9.453721837607056 -7.839304904005658 -6.760696401444616 5 1 0
449 6 2 0.5564 4.692765300243301 -11.33590466113907 -6.405114596802227 0 0 0
1117 229 1 -1.1128 5.15096997404588 -4.036625006837722 -6.682712452074098 14 0 0
70 0 5 0 9.396974832633374 -5.946031438456661 -12.97243685547238 0 0 0
789 119 2 0.5564 10.516690295330095 -5.90236420961337 -0.6245157190721569 7 0 0
787 119 1 -1.1128 10.963090241790121 -6.588056113184637 -1.1212636486904253 7 0 0
96 0 5 0 9.358132818163126 -10.094729073264343 -8.999862840617167 0 0 0
1039 203 1 -1.1128 9.006120404140674 -11.7650130478885 -3.107001378068492 51 1 0
810 126 2 0.5564 11.21706992837619 -3.2043132218029213 -2.894360079788281 53 1 0
467 12 2 0.5564 8.190127035264949 -5.376210618132472 -6.723399699501783 0 0 0
435 1 2 0.5564 11.485017775852945 -5.967166004548631 -5.617279698059802 -1 0 0
1118 229 2 0.5564 6.0261402174754854 -4.415932095395091 -6.602171289362424 14 0 0
477 15 2 0.5564 7.995220020347579 -9.471718741117627 -5.891611964245132 -1 0 0
52 0 5 0 11.406908552743282 -5.993167373044555 -11.091096057727636 -1 0 0
488 19 2 0.5564 8.147806746677851 -2.7085173102066604 -6.5833134106773405 0 0 0
69 0 5 0 7.261188921493572 -7.939567178737589 -13.02297348738772 0 0 0
458 9 2 0.5564 -12.11398302252605 -10.763238649097696 -6.748864745207145 0 0 0
289 0 5 0 11.52793377374741 -3.9942339667131397 -8.892526969535231 -1 0 0
71 0 5 0 9.39485983502079 -8.012086038387126 -11.015473491244409 0 0 0
239 0 5 0 9.369466767109861 -3.9318441337252965 -10.944054738507415 0 0 0
300 0 5 0 9.445943023458096 -1.9106006378879141 -8.952639255363653 0 0 0
475 15 1 -1.1128 7.65067495614425 -10.104873758469175 -6.521418661026061 -1 0 0
982 184 1 -1.1128 11.597624380606328 -2.046136692931232 -6.3887908771610356 -1 0 0
1229 266 2 0.5564 10.38849288087085 -6.3897106440043 -3.670299103834095 52 1 0
1062 210 2 0.5564 5.9013590122674495 -8.212389658683502 -2.5186209520417675 50 1 0
809 126 2 0.5564 10.720492511181432 -3.6102391453084657 -1.5230352180170248 53 1 0
1331 300 2 0.5564 5.9719161643783645 -9.038533351400142 -6.622835375770299 1 0 0
108 0 5 0 9.498319203189302 -5.940907979410689 -9.060093969085607 0 0 0
66 0 5 0 5.292450231306775 -5.8877336664663655 -13.019441752744001 0 0 0
1368 312 2 0.5564 7.879226750416294 -2.717315804809788 -3.8627631160948876 50 3 0
106 0 5 0 5.293888425239124 -6.080928395539493 -9.054516563662123 0 0 0
494 21 2 0.5564 9.749671321038068 -4.5300563671450025 -5.548752525336291 0 0 0
1119 229 2 0.5564 4.563094787744849 -4.79173333967983 -6.703015391294045 14 0 0
476 15 2 0.5564 8.213354132658383 -10.872827593021853 -6.421900458270478 -1 0 0
1473 0 3 1.1 -11.244480093447969 -1.655163220980782 -1.6021825396197533 46 1 0
808 126 1 -1.1128 11.521613270117886 -3.4355157202923223 -2.016857521973867 53 1 0
1061 210 2 0.5564 6.4067100243456245 -8.125946069668299 -3.943064650211452 50 1 0
1060 210 1 -1.1128 5.8097831298151394 -8.61910491999699 -3.380267373245012 50 1 0
1177 249 1 -1.1128 9.028248877068261 -9.294327763652785 -4.049932105959981 51 -1 0
1178 249 2 0.5564 8.771219183357235 -8.372873252591184 -4.017204712267097 51 -1 0
917 162 2 0.5564 11.55149178509822 -7.551554945704689 -2.709553188237394 52 0 0
916 162 1 -1.1128 11.515130002013565 -8.141420533744341 -3.4625283600244545 52 0 0
918 162 2 0.5564 -12.00133371234849 -8.752575651814974 -3.323746234857219 53 0 0
238 0 5 0 9.436356310513155 -1.8849953194357876 -12.976090346233407 0 0 0
1230 266 2 0.5564 11.317145235960432 -5.200368530666588 -3.7926249361401436 52 1 0
1228 266 1 -1.1128 10.467630161501654 -5.530672299645083 -4.0850479764807215 52 1 0
466 12 1 -1.1128 7.476114898505853 -6.01345830019854 -6.742846400483566 0 0 0
457 9 1 -1.1128 11.570050955347478 -10.013535015749932 -6.536465989628318 -1 0 0
433 1 1 -1.1128 11.526502796333126 -5.937734366377827 -6.573125858755444 -1 0 0
49 0 5 0 11.413147319920078 -8.00346171043298 -13.030186150490108 -1 0 0
1179 249 2 0.5564 9.970522220717328 -9.286742123259703 -3.8815410434942916 51 -1 0
563 44 2 0.5564 11.535897183270682 -10.94778259456591 -4.943927494261035 50 -1 0
1332 300 2 0.5564 6.144010190832523 -7.693469567143797 -7.295949496719168 1 0 0
46 0 5 0 9.317240506564238 -10.0361492918845 -13.049278433395717 0 0 0
42 0 5 0 5.307427819959653 -10.029465266677892 -13.119477564380457 0 0 0
235 0 5 0 5.302676026052365 -3.942948727535167 -10.920887325751902 0 0 0
468 12 2 0.5564 7.912858161077924 -6.860503117338131 -6.832453744335923 0 0 0
217 0 5 0 11.316219184149624 -3.9337736111119437 -12.980199565195987 -1 0 0
48 0 5 0 7.3342607756395 -10.052322681113708 -11.087512178567087 0 0 0
299 0 5 0 7.306452583110694 -4.02727117208293 -8.962113476097604 0 0 0
1016 195 2 0.5564 6.239564371162223 -0.7001830354549724 -6.528546374623589 0 0 0
1022 197 2 0.5564 9.761800511999574 -8.728065921000924 -6.938020489100829 5 1 0
67 0 5 0 5.272287894674149 -8.06088901383854 -11.070200419581674 0 0 0