LAMMPS data file via write_data, version 2 Aug 2023, timestep = 200000, units = real

1491 atoms
5 atom types
686 bonds
1 bond types
343 angles
1 angle types

-12.120000000000001 12.120000000000001 xlo xhi
-12.120000000000001 12.120000000000001 ylo yhi
-28.28 28.28 zlo zhi

Masses

1 15.9994
2 1.008
3 28.99
4 35.453
5 26.9815

Pair Coeffs # lj/cut/tip4p/long

1 0.185199 3.1589
2 0 0
3 0.0469 2.4299
4 0.15 4.0447
5 11.697 2.574

Bond Coeffs # harmonic

1 0 0.9572

Angle Coeffs # harmonic

1 0 104.52

Atoms # full

478 16 1 -1.1128 -8.69182014113002 -9.855536014019725 -6.373082430200137 0 0 0
86 0 5 0 -10.795195809620399 -10.052798981351465 -8.930248165624164 0 0 0
484 18 1 -1.1128 -6.488298191636332 -8.106801614783121 -6.483052377490516 0 0 0
451 7 1 -1.1128 -10.81204405683377 -7.986164263592405 -6.3611545659330675 1 0 0
544 38 1 -1.1128 -8.885835156844637 -6.271710637395713 -6.339082677238087 0 0 0
545 38 2 0.5564 -8.916501882919803 -6.327370081472459 -5.383995112626235 0 0 0
452 7 2 0.5564 -11.5436484728615 -7.646965823383559 -6.876812352750964 1 0 0
453 7 2 0.5564 -10.125629641865409 -7.32565246628219 -6.455058991375774 1 0 0
480 16 2 0.5564 -9.355024855026821 -9.166136687438001 -6.406189790997882 0 0 0
485 18 2 0.5564 -7.28493692227655 -8.628703903203998 -6.578891585250911 0 0 0
479 16 2 0.5564 -8.300170234087584 -9.770242918077848 -5.503838896978248 0 0 0
546 38 2 0.5564 -9.307933203912935 -5.4375451804564285 -6.544550391109653 0 0 0
486 18 2 0.5564 -5.7776836974098 -8.7127920847419 -6.692963213764355 0 0 0
1153 241 1 -1.1128 -6.889896412542139 -4.262830369598624 -6.2344269667950964 0 0 0
1045 205 1 -1.1128 -10.296934096554077 -4.009017843812775 -6.370651318110469 0 0 0
1154 241 2 0.5564 -7.5420207709705736 -4.904049741030646 -6.5168770923089365 0 0 0
1155 241 2 0.5564 -7.309862381197014 -3.7955342716214204 -5.512292001556698 0 0 0
1047 205 2 0.5564 -10.568674920080467 -3.7275272920583027 -5.497071832052454 0 0 0
1046 205 2 0.5564 -9.739052139052898 -3.299218959736448 -6.688782023977532 0 0 0
291 0 5 0 -8.736980656202181 -4.0333493362134725 -8.913299164566784 0 0 0
100 0 5 0 -6.73217381848666 -6.0009892520931265 -8.939348540398285 0 0 0
99 0 5 0 -8.758699818334428 -8.03068814659455 -8.985966976281835 0 0 0
88 0 5 0 -6.838880325955827 -10.103695454905544 -8.965358693796091 0 0 0
98 0 5 0 -10.809176767985761 -5.958456035054308 -9.023309989737994 0 0 0
55 0 5 0 -6.757234545830674 -8.007192153143164 -10.981744577447753 0 0 0
56 0 5 0 -8.765031967290925 -5.960610163607695 -10.976628104577484 0 0 0
219 0 5 0 -10.852728427089817 -3.928293565021073 -10.87435240694523 0 0 0
223 0 5 0 -6.787419839806422 -3.960454726669802 -11.037684777741244 0 0 0
32 0 5 0 -8.778110826688097 -10.00569049646777 -11.00577582587609 0 0 0
51 0 5 0 -10.868766301224843 -7.983823407998823 -10.956000680790504 0 0 0
30 0 5 0 -6.822693468460329 -10.045146514693494 -12.924862821859739 0 0 0
222 0 5 0 -6.878711986792598 -1.9012767362329395 -13.034533721848575 0 0 0
218 0 5 0 -10.876784764346501 -1.987717132158476 -12.933181554915448 0 0 0
292 0 5 0 -6.824917722092404 -1.940394701843901 -8.94497244353394 0 0 0
221 0 5 0 -8.908966741959052 -3.9840699147987726 -12.956954058597333 0 0 0
224 0 5 0 -8.769308154416366 -2.015190973180622 -10.938886448940119 0 0 0
290 0 5 0 -10.757488771905033 -1.9431527845167926 -8.894279118946987 0 0 0
50 0 5 0 -10.86333533289725 -6.018279548009828 -12.912804940873503 0 0 0
54 0 5 0 -6.733869252612212 -5.953582683941827 -12.951627202033906 0 0 0
53 0 5 0 -8.716020352898694 -7.957643647694387 -12.973958492931112 0 0 0
26 0 5 0 -10.77738763511601 -9.915500879410718 -13.082515465678929 0 0 0
36 0 5 0 -4.797934083449705 -10.032404156462224 -10.918793585074084 0 0 0
481 17 1 -1.1128 -4.720887833439778 -10.281747311061414 -6.388137227396057 0 0 0
547 39 1 -1.1128 -4.534987974854399 -6.188242062132374 -5.907835453566614 0 0 0
101 0 5 0 -4.6480989183261165 -7.972860293586345 -8.983512377827239 0 0 0
60 0 5 0 -4.7613390283966055 -5.922958704826472 -10.999043825225252 0 0 0
225 0 5 0 -4.733917027169723 -3.9480438640833566 -12.95082627246308 0 0 0
57 0 5 0 -4.834279466963365 -8.065246266534484 -13.045346694952238 0 0 0
1048 206 1 -1.1128 -8.660400617244528 -1.7925122260553827 -6.459547704997179 0 0 0
964 178 1 -1.1128 -4.802298011877916 -1.8121874006360628 -6.70589474816739 0 0 0
228 0 5 0 -4.833146427307209 -1.9774802285457214 -10.930024353268546 0 0 0
293 0 5 0 -4.7490374947813185 -3.9736524015220023 -8.956826051767578 0 0 0
1050 206 2 0.5564 -8.542989029428918 -2.236944821664499 -5.619946311665288 0 0 0
1049 206 2 0.5564 -7.907812457128171 -1.2049094532305369 -6.527332202675201 0 0 0
966 178 2 0.5564 -5.542202352613739 -1.2188125801768501 -6.834935233500525 0 0 0
606 58 2 0.5564 -5.304343542210177 -4.596611534315744 -2.9206237420715797 1 0 0
604 58 1 -1.1128 -5.768841928173763 -4.652293947895333 -3.75572303035127 1 0 0
1464 0 3 1.1 -4.645170694972939 -3.898030711560947 -5.621028122976843 1 0 0
1488 0 4 -1.1 -8.122560292104275 -2.614357654799163 -3.606290404841349 1 1 0
605 58 2 0.5564 -6.437234597596272 -3.9690351731305227 -3.704589047885602 1 0 0
1098 222 2 0.5564 -5.595566083356486 -4.779671076814663 -0.6764996577128836 3 0 0
1096 222 1 -1.1128 -4.879921408827666 -4.387582476517145 -1.1768225507363346 3 0 0
870 146 2 0.5564 -6.4681643573718866 -1.9330907377992035 -2.5182537108855496 2 0 0
566 45 2 0.5564 -6.753262766098051 -6.142387397449934 -3.85474375075332 2 0 0
565 45 1 -1.1128 -7.2520346758173595 -6.95730417441322 -3.9129487174668944 2 0 0
567 45 2 0.5564 -7.0151372139147465 -7.323304355212665 -4.765101664279964 2 0 0
1462 0 3 1.1 -10.110957507109099 -1.5081810651521668 -2.82235507301736 1 0 0
765 111 2 0.5564 -9.281579964657656 -8.110223538039627 -1.5888110497860215 3 0 0
763 111 1 -1.1128 -8.393681622849952 -8.42269426078141 -1.7625829079133832 3 0 0
1279 283 1 -1.1128 -7.991604781403581 -10.517041877250717 -3.8073886242991932 2 1 0
1280 283 2 0.5564 -7.064390879874855 -10.295989832087773 -3.7197631859488705 2 1 0
764 111 2 0.5564 -8.034446554218093 -7.790762871685519 -2.385366934372676 3 0 0
1281 283 2 0.5564 -8.43788126228024 -9.9237844509047 -3.2031553920088003 2 1 0
548 39 2 0.5564 -5.293621091625009 -6.668647956546667 -6.239330178541478 0 0 0
580 50 1 -1.1128 -11.340411817751988 -8.836178912208062 -3.687670715648995 1 0 0
868 146 1 -1.1128 -5.6854176747137695 -1.5280787690012876 -2.1447910524322262 2 0 0
582 50 2 0.5564 -11.41549307339627 -8.610573811387557 -4.614868142166897 1 0 0
1097 222 2 0.5564 -4.205330247675978 -5.066189352644878 -1.2028513878899338 3 0 0
896 155 2 0.5564 -9.935044858447485 -0.5594193266870888 -6.218638828492468 0 0 0
1023 197 2 0.5564 -8.345005837445992 -4.357895402517462 -2.462226349977425 2 1 0
1478 0 4 -1.1 -9.177196545834217 -0.39729743466862205 -0.8629183348952361 1 0 0
542 37 2 0.5564 -10.21503502158553 -11.197181181314647 -6.698260167653489 0 0 0
1021 197 1 -1.1128 -8.600182133922612 -5.114871024118515 -1.9348604401190297 2 1 0
456 8 2 0.5564 -7.515983927995299 -11.192677669135511 -6.8895779376827635 0 0 0
1022 197 2 0.5564 -9.192090315158431 -5.612074497885746 -2.4993443831843205 2 1 0
829 133 1 -1.1128 -10.548672686429821 -6.002748437999052 -3.911090357414603 2 0 0
830 133 2 0.5564 -10.657759481548434 -6.941161528698382 -3.757112255995748 2 0 0
1129 233 1 -1.1128 -5.312495537598794 -10.008078067328272 -3.437519904872597 2 0 0
1365 311 2 0.5564 -7.305342481345201 -8.767263725711397 -0.44156997283783334 2 1 0
1130 233 2 0.5564 -4.766524549377787 -9.221913980423851 -3.4267472657613305 2 0 0
455 8 2 0.5564 -6.18269797589015 -11.908681120503113 -6.929369654894936 0 0 0
869 146 2 0.5564 -5.604954229066994 -0.6924014250181207 -2.604577814758122 2 0 0
482 17 2 0.5564 -4.707507046594218 -10.309040605280774 -5.43141954038466 0 0 0
1288 286 1 -1.1128 -11.633143353254804 -3.0019033699020525 -4.341740063777259 2 0 0
1115 228 2 0.5564 -1.8888695281128445 -1.6749058328670106 -0.3882512319485837 2 0 0
1230 266 2 0.5564 -4.260431874010069 -2.1523975384874094 -3.159413396659468 2 0 0
735 101 2 0.5564 -7.570862495530541 -2.607488715863603 -0.6597266437915671 2 0 0
463 11 1 -1.1128 5.534617813838431 -12.095076103675009 -6.538486502162687 0 0 0
578 49 2 0.5564 -7.627650684171622 -5.724949471735186 -0.5837617570670468 3 0 0
33 0 5 0 -4.791513136083005 -12.027844608683012 -12.985129756706732 0 0 0
89 0 5 0 -4.7870545452159865 -12.050716821710111 -8.886999895269616 0 0 0
1482 0 4 -1.1 1.0055036334072702 -0.717373462320016 -3.729345399024236 1 0 0
557 42 2 0.5564 8.68077933068973 -0.860888466934849 -6.706906894252756 0 0 0
669 79 2 0.5564 -2.122219516511411 -6.379278789705381 -1.19456515141108 2 0 0
1252 274 1 -1.1128 -10.536211323789402 -7.408788328277847 -0.3369765299256911 2 1 0
592 54 1 -1.1128 7.881594882268482 -11.430701237419044 -4.239149914697647 2 0 0
581 50 2 0.5564 -11.729273288715664 -9.708249637657927 -3.6206118299634618 1 0 0
831 133 2 0.5564 -11.368086368324036 -5.612738598282805 -3.606700012874389 2 0 0
505 25 1 -1.1128 -3.7888118969153153 -12.10062201730218 -1.896262200554917 2 0 0
1475 0 3 1.1 -4.758149661402632 -2.3432330696585946 -0.10265452037619414 2 0 0
1131 233 2 0.5564 -4.98761939524124 -10.53586836524248 -2.7080420442437436 2 0 0
937 169 1 -1.1128 6.304723326609795 -1.376449502535975 -2.284485086678264 1 0 0
587 52 2 0.5564 -7.547964815447306 -11.85752853550067 -2.442301155090685 2 0 0
667 79 1 -1.1128 -3.0749439406079473 -6.46439790861765 -1.2311840185899778 2 0 0
483 17 2 0.5564 -3.865573533501457 -9.926531283012544 -6.6300564664603705 0 0 0
938 169 2 0.5564 5.745762901662993 -2.014745579584044 -2.7276017328826585 1 0 0
939 169 2 0.5564 6.4647769683836325 -1.7564142286529725 -1.4206277085638421 1 0 0
35 0 5 0 -2.790905777900346 -11.971105788254821 -10.985360007541031 0 0 0
257 0 5 0 3.1756234695911196 -0.0393887858059612 -13.049043279372265 0 0 0
609 59 2 0.5564 9.017360775330769 -0.686934377813447 -1.4971900579647275 2 0 0
1262 277 2 0.5564 2.6692762651356214 -10.741020263327446 -1.364560215187509 2 1 0
85 0 5 0 11.321724872550147 -12.014663980849129 -9.000989355866682 -1 0 0
95 0 5 0 7.3562715074176745 -12.09878905414405 -9.057582787006206 0 0 0
1084 218 1 -1.1128 -3.5605689927687996 -7.797163170620762 -3.5706955776656515 2 0 0
965 178 2 0.5564 -4.044388143836678 -1.2345693419327206 -6.615390901642356 0 0 0
1077 215 2 0.5564 -11.361606916381861 -11.915117071748798 -3.257432262665934 2 0 0
47 0 5 0 9.400939669185524 -12.044844945756818 -10.994278448808402 0 0 0
1228 266 1 -1.1128 -3.6869611250155745 -2.3600908311875313 -3.8971155908400483 2 0 0
87 0 5 0 -8.81819170737918 -12.027593249574265 -9.021685844094211 0 0 0
41 0 5 0 3.277219939603276 -11.992684574527892 -13.054064090019956 0 0 0
1302 290 2 0.5564 0.5736117666481181 -3.78313871290986 -0.05985584402758618 2 1 0
594 54 2 0.5564 8.447069710113556 -12.065763299919489 -4.678682517781026 2 0 0
1085 218 2 0.5564 -3.4048321479453225 -7.417020578523277 -2.706127849927588 2 0 0
556 42 1 -1.1128 9.3184579582603 -0.14967726366353926 -6.645659919637397 0 0 0
631 67 1 -1.1128 -2.2477032120546085 -10.353416902815997 -4.410706365576768 2 0 0
1423 331 1 -1.1128 3.150486271085073 -1.4141676477865406 -0.46267383688541486 1 0 0
1086 218 2 0.5564 -4.131252619837262 -7.167099762369776 -4.01063891905914 2 0 0
1185 251 2 0.5564 -2.091430342691353 -6.726574643018336 -3.9665328831531848 2 0 0
447 5 2 0.5564 1.4391649097150319 -11.900130326197715 -6.5458724929573355 0 0 0
549 39 2 0.5564 -3.7798676212675533 -6.660377184286085 -6.258752075740481 0 0 0
1184 251 2 0.5564 -1.6315907752963472 -5.375799782855082 -3.460714312611809 2 0 0
1183 251 1 -1.1128 -1.3729325409258324 -6.097709473180412 -4.033571323061752 2 0 0
1236 268 2 0.5564 -2.8786380192918593 -10.5815324145182 -1.3197549267182864 2 1 0
1235 268 2 0.5564 -3.081117236549836 -9.159490246810394 -0.8415356127446887 2 1 0
1486 0 4 -1.1 2.290345540427503 -4.901130843480832 -0.9346950508823948 2 1 0
1234 268 1 -1.1128 -2.5131322408419843 -9.699733658814312 -1.3908447374774202 2 1 0
635 68 2 0.5564 -0.265494188692414 -6.518147488358094 -2.4091735523293036 2 0 0
39 0 5 0 1.2721617892945885 -12.036173804942058 -11.009223357557833 0 0 0
779 116 2 0.5564 -0.7651594785332875 -3.540177656091038 -2.881036807883419 2 0 0
1239 269 2 0.5564 1.0786429947837968 -10.131493106588348 -3.61447423200508 2 1 0
778 116 1 -1.1128 -1.6779670340369333 -3.68651296797586 -2.632766365733012 2 0 0
780 116 2 0.5564 -2.1840528878386753 -3.1885264415010117 -3.2747165412925203 2 0 0
1238 269 2 0.5564 0.7830760641776453 -8.660993033858174 -3.4091327801639753 2 1 0
1237 269 1 -1.1128 0.3923277788694468 -9.530678170667084 -3.324211204283758 2 1 0
1374 314 2 0.5564 1.4785016748296869 -6.652822620365902 -4.206221964544682 2 1 0
595 55 1 -1.1128 3.1506025886044973 -10.32499327535276 -3.451542233900226 2 0 0
1373 314 2 0.5564 1.9545465570983203 -6.314159722902157 -2.8095885408241603 2 1 0
1372 314 1 -1.1128 2.0760535461414364 -6.945956949161945 -3.51831697559401 2 1 0
1052 207 2 0.5564 1.5205955859039495 -3.9883062852625915 -2.6238441767560006 1 0 0
1229 266 2 0.5564 -3.0882097452944315 -1.6153369383284986 -3.9527331896002473 2 0 0
1051 207 1 -1.1128 0.9989980377567071 -3.79095582651688 -3.40181670237731 1 0 0
1315 295 1 -1.1128 3.2033266065191817 -1.5329898816400322 -6.551169685615678 0 0 0
887 152 2 0.5564 -0.5639907775356481 -1.8571260993443468 -5.430330011230939 0 0 0
62 0 5 0 1.2699840936389082 -5.809393768470505 -12.962466507875543 0 0 0
294 0 5 0 -2.7249558834648226 -1.9264781508346402 -9.007895268438844 0 0 0
64 0 5 0 -0.7356781351978056 -5.943019773135208 -10.97882592228744 0 0 0
59 0 5 0 -2.83766284220215 -8.040116939797578 -10.972246386430744 0 0 0
232 0 5 0 -0.7049045552862402 -1.886336198580208 -10.911214710196084 0 0 0
885 151 2 0.5564 -2.08909749824424 -3.2139319735013916 -6.374371357437645 0 0 0
889 153 1 -1.1128 1.2838852507615393 -3.9284028168220266 -6.684433960003119 0 0 0
883 151 1 -1.1128 -2.6142340589810393 -4.004027665881973 -6.501781018675562 0 0 0
884 151 2 0.5564 -2.0183083998876463 -4.622725207451623 -6.924086135831932 0 0 0
1058 209 2 0.5564 2.4519541963263043 -8.67730008038546 -6.509291572567022 0 0 0
530 33 2 0.5564 0.46536852404235257 -8.949797779755622 -6.56502901112671 0 0 0
969 179 2 0.5564 -2.602921574403299 -8.535803469411967 -5.677638768005631 0 0 0
531 33 2 0.5564 0.07304600279407691 -10.411828615760873 -6.58612837969595 0 0 0
551 40 2 0.5564 0.011683959557366902 -5.423189027523541 -6.856924357537021 0 0 0
968 179 2 0.5564 -1.9525587914944267 -7.965711943951867 -6.920184526004635 0 0 0
967 179 1 -1.1128 -2.8041979525820864 -8.199318783203744 -6.5508546656504105 0 0 0
529 33 1 -1.1128 -0.2935162905491535 -9.530740563513074 -6.511542465200086 0 0 0
550 40 1 -1.1128 -0.7134883826336441 -6.040138537467685 -6.758136657894844 0 0 0
1059 209 2 0.5564 1.9069820467033676 -7.442984523685136 -7.19585337561684 0 0 0
1057 209 1 -1.1128 1.942313627305973 -7.883505554428609 -6.346781222698624 0 0 0
890 153 2 0.5564 0.4713549650283925 -3.504468415865222 -6.408254453172872 0 0 0
552 40 2 0.5564 -0.8443960080593172 -6.107140476935025 -5.812302697936501 0 0 0
295 0 5 0 -0.6725717921350638 -3.8850327173554198 -8.953445981495824 0 0 0
891 153 2 0.5564 1.8955185389697016 -3.205812289923086 -6.825936910925 0 0 0
102 0 5 0 -2.726345938325955 -5.962255579074629 -8.96133719078024 0 0 0
104 0 5 0 1.2199048434921664 -5.992105883011095 -8.934837656986542 0 0 0
103 0 5 0 -0.8166173834766054 -7.993199785545779 -8.975977032085273 0 0 0
90 0 5 0 -2.7164026893485866 -10.092670408133719 -8.969625862926451 0 0 0
92 0 5 0 1.403764032382927 -9.940737179080438 -9.04838472895154 0 0 0
63 0 5 0 1.2980495567481876 -7.873346624206833 -11.032673184631545 0 0 0
34 0 5 0 -2.7048503003451634 -9.96936949371967 -12.968405771470833 0 0 0
227 0 5 0 -2.718050903478694 -3.9353872838092823 -10.967097536781633 0 0 0
231 0 5 0 1.1988012093452776 -3.9251267945393233 -10.911030282907117 0 0 0
40 0 5 0 -0.7161030632048379 -9.965453511421174 -11.002126855347024 0 0 0
296 0 5 0 1.3293215291569584 -1.8050009903322342 -8.867974436055489 0 0 0
886 152 1 -1.1128 -0.5561955618575214 -1.9637326121738212 -6.3815432009640904 0 0 0
888 152 2 0.5564 -0.12822263053287805 -1.1722980450438183 -6.708223856118056 0 0 0
38 0 5 0 1.2862539503265702 -9.946342989665812 -12.911772619869115 0 0 0
58 0 5 0 -2.8554700017744743 -5.993406164761783 -13.060013039788545 0 0 0
230 0 5 0 1.194224098607748 -1.9662295680933617 -12.955247629760688 0 0 0
61 0 5 0 -0.7499144664001886 -7.8829168886238925 -13.009105526171322 0 0 0
226 0 5 0 -2.7810823844032058 -1.9464957077537823 -13.03383511439497 0 0 0
229 0 5 0 -0.7791063408559117 -3.9930508805348977 -13.028142029389167 0 0 0
65 0 5 0 3.2780463886018665 -7.886398313367786 -13.100824032037096 0 0 0
297 0 5 0 3.3092501265271674 -3.9329040350807394 -8.965780221960946 0 0 0
233 0 5 0 3.346079928151262 -3.8295376698938832 -13.085129425979531 0 0 0
236 0 5 0 3.2315602602947195 -1.9877212603048837 -10.98868764809128 0 0 0
44 0 5 0 3.2984769947920696 -10.019991810694862 -11.109518680854995 0 0 0
68 0 5 0 3.2978537138852104 -5.876838009665581 -11.045619648241455 0 0 0
472 14 1 -1.1128 3.0397237109807587 -10.606349581082753 -6.291478659408008 0 0 0
105 0 5 0 3.341275835765244 -8.001461370480161 -9.005714891462311 0 0 0
487 19 1 -1.1128 3.5355415952699776 -5.646649874241306 -5.8638421294186465 0 0 0
488 19 2 0.5564 2.7917773056885666 -5.112300284461364 -6.142209656497284 0 0 0
473 14 2 0.5564 3.0345900910376624 -10.390521607087058 -5.35894196761044 0 0 0
1053 207 2 0.5564 1.1621036725523617 -2.8630572498584423 -3.571047204029577 1 0 0
1124 231 2 0.5564 -1.0301832937660982 -0.4023805049054649 -3.847664552584519 2 0 0
1467 0 3 1.1 -0.11989638842628515 -9.821316131459517 -1.043941521902611 2 0 0
1116 228 2 0.5564 -2.1571250824634967 -2.7363485090580406 -1.4338483882322515 2 0 0
1316 295 2 0.5564 3.8792201578899577 -0.8682483903679458 -6.418714980099111 0 0 0
527 32 2 0.5564 -2.5212487217360824 -11.746173208998165 -5.6964088385935545 0 0 0
636 68 2 0.5564 0.6521066867446912 -5.982833969103805 -1.330589402047553 2 0 0
684 84 2 0.5564 3.7176032615362136 -5.083405680048273 -2.3576758813636514 2 0 0
634 68 1 -1.1128 -0.1358118602644297 -6.5105501766492635 -1.460832091046691 2 0 0
1114 228 1 -1.1128 -2.5968623405828333 -2.0918022164088805 -0.8793752171370688 2 0 0
1161 243 2 0.5564 -9.644676912160614 -4.783654157082569 -0.35179253742486427 3 0 0
1317 295 2 0.5564 2.5423716733575157 -1.0990256438411068 -7.090632805570532 0 0 0
599 56 2 0.5564 3.7513481819593637 -7.572746967113043 -3.7835318741178248 2 0 0
668 79 2 0.5564 -3.274744158452842 -7.18415241724787 -0.6326362756401288 2 0 0
848 139 2 0.5564 -11.447894395312685 -2.11010156958625 -0.31438532225263044 3 0 0
593 54 2 0.5564 7.105643892927487 -11.932562668584948 -3.989675343379076 2 0 0
1139 236 2 0.5564 10.508384906803926 -5.259225242475098 -2.91056404069027 2 0 0
454 8 1 -1.1128 -7.08057785390258 -11.997889080515776 -6.609806898443104 0 0 0
1424 331 2 0.5564 3.8514916319230967 -0.9401208890378375 -0.015314913455799252 1 0 0
489 19 2 0.5564 3.2547065830931663 -6.548429950045828 -6.019231900435646 0 0 0
532 34 1 -1.1128 -0.33975957149919916 -11.86245424607114 -0.03666654567443718 3 1 0
633 67 2 0.5564 -2.6794406704858873 -10.348991901575689 -3.556423934897072 2 0 0
1017 195 2 0.5564 6.225625977092396 -0.7260413696049477 -6.672869923262796 0 0 0
1296 288 2 0.5564 7.766227649099236 -1.652758225484219 -3.203157384466295 2 0 0
1070 213 2 0.5564 -12.099326184668076 -8.663885988269223 -1.1407974610820497 2 0 0
596 55 2 0.5564 3.817709271651274 -11.010658031317114 -3.4845532836290944 2 0 0
1289 286 2 0.5564 12.052788080620727 -2.8431958958199273 -5.105958324329875 1 0 0
1071 213 2 0.5564 10.972453572777944 -8.017172152944143 -0.4274129861578602 1 0 0
27 0 5 0 -10.825497157364179 -11.948933735232169 -11.014094105361439 0 0 0
1123 231 1 -1.1128 -1.9582633758030403 -0.1912100021420117 -3.949360910362646 2 0 0
541 37 1 -1.1128 -11.016647097603602 -11.69036499731247 -6.5237558675858445 0 0 0
70 0 5 0 9.314230852327537 -6.032065165949619 -13.044698235616282 0 0 0
469 13 1 -1.1128 7.300924642853254 -5.902020743069564 -6.262888309827432 0 0 0
1292 287 2 0.5564 6.186763925288357 -4.872560097580926 -3.4050733034892113 2 1 0
25 0 5 0 11.404252245628802 -11.961318534065825 -13.098940766197275 -1 0 0
1216 262 1 -1.1128 4.032339480912065 -2.310928135651289 -3.769078171200977 1 0 0
1218 262 2 0.5564 3.5906332793956826 -2.1008806375868607 -4.591872290901427 1 0 0
1291 287 1 -1.1128 7.115327845749862 -4.678122974418644 -3.5321951634693938 2 1 0
91 0 5 0 -0.6392878269801182 -11.982664591082376 -9.014242762936327 0 0 0
683 84 2 0.5564 4.03432803373406 -5.667581524353683 -3.7179412895263173 2 0 0
597 55 2 0.5564 3.6301370402784854 -9.515062486887444 -3.625639686171776 2 0 0
289 0 5 0 11.278854019997304 -3.944567549852683 -8.89512447297834 -1 0 0
491 20 2 0.5564 4.636311511596339 -4.273290829892911 -6.1040591870565475 0 0 0
433 1 1 -1.1128 9.377903830799923 -7.808985168319735 -6.4227515772023605 -1 0 0
1075 215 1 -1.1128 11.999654087689365 -11.53931300603913 -3.203998456115717 1 0 0
42 0 5 0 5.290843323688665 -9.953468641701376 -13.159378108280881 0 0 0
300 0 5 0 9.273037292342607 -2.001997177249113 -8.989211011535815 0 0 0
495 21 2 0.5564 8.762909375391049 -4.740614211284019 -6.892785375178159 0 0 0
961 177 1 -1.1128 11.407626008574091 -5.789307089856575 -6.098762956526707 -1 0 0
651 73 2 0.5564 10.642346573270158 -7.705155311281215 -2.326318398071131 2 0 0
97 0 5 0 11.298750418313201 -7.979910884165535 -8.976033371811456 -1 0 0
1293 287 2 0.5564 7.540753854300705 -5.01193603053552 -2.742365209476392 2 1 0
1149 239 2 0.5564 9.052414010597232 -6.363004850776644 -1.7126491372951715 1 0 0
1253 274 2 0.5564 -10.544094878752702 -6.455933655136092 -0.2462166277164233 2 1 0
607 59 1 -1.1128 9.207361253032477 -0.6895329077132278 -0.5590444137831503 2 0 0
913 161 1 -1.1128 7.402452042241045 -2.135156231977054 -6.434024570504538 0 0 0
37 0 5 0 -0.7099866671763038 -12.039052225034379 -12.958132306327089 0 0 0
1261 277 1 -1.1128 2.246950542641655 -10.357445081163698 -0.5959514460893518 2 1 0
1217 262 2 0.5564 4.075255133400167 -3.2670903645196843 -3.7570117045457647 1 0 0
445 5 1 -1.1128 0.5741056201065616 -11.966051897373616 -6.141405757055996 0 0 0
682 84 1 -1.1128 4.270217094360448 -4.951621976204617 -3.1280420994462412 2 0 0
1313 294 2 0.5564 9.424414884297532 -0.41427134660692844 -3.8074877764751545 2 0 0
1205 258 2 0.5564 6.8846401062392895 -8.549116823315137 -1.7488063893699264 2 1 0
1147 239 1 -1.1128 8.246404958916829 -6.119210311871359 -1.2574818270304235 1 0 0
982 184 1 -1.1128 11.394531836983614 -1.8459590652666487 -6.458932306008179 -1 0 0
1148 239 2 0.5564 7.716081534485198 -6.916023280209343 -1.2651202499038317 1 0 0
608 59 2 0.5564 8.549657612142772 -1.2742627524595753 -0.18258145752260965 2 0 0
709 93 1 -1.1128 8.337961704258534 -9.548568686162106 -1.9403383048148068 2 0 0
649 73 1 -1.1128 10.294955370132861 -6.949119123472853 -2.7995786941904233 2 0 0
632 67 2 0.5564 -1.3695081896738266 -10.014226856576585 -4.237529725420799 2 0 0
468 12 2 0.5564 5.79606319412126 -8.893845657272127 -6.6471748623811795 0 0 0
1204 258 1 -1.1128 6.201135155921342 -7.916757205819948 -1.5269944547380425 2 1 0
618 62 2 0.5564 -2.8657348659017226 -0.4296243337535364 -1.3442597927063462 2 0 0
106 0 5 0 5.306371981308736 -6.004238181948683 -9.044210851799463 0 0 0
1295 288 2 0.5564 8.435844833460738 -2.8805825341903337 -3.7827746109091485 2 0 0
915 161 2 0.5564 6.625665276964841 -2.6894873913796875 -6.508326639400711 0 0 0
240 0 5 0 7.306360421716907 -1.9323994500755648 -11.017096651234802 0 0 0
69 0 5 0 7.269444405216399 -8.051833938465101 -12.924456272355169 0 0 0
1138 236 1 -1.1128 10.78359007074073 -4.368656109119633 -2.6929149108539283 2 0 0
238 0 5 0 9.345011821867196 -1.900938252093001 -12.986200050961633 0 0 0
299 0 5 0 7.272166293071154 -3.945209782424381 -9.029953161134435 0 0 0
108 0 5 0 9.282735423583278 -5.972961971438892 -8.999250585978668 0 0 0
1290 286 2 0.5564 12.00620084047126 -3.3341670266423784 -3.6746399848093954 1 0 0
96 0 5 0 9.301969633861109 -10.061842635926766 -8.99237345182428 0 0 0
984 184 2 0.5564 -12.086690262497864 -1.7097566979030623 -7.026352705166529 0 0 0
849 139 2 0.5564 11.828805061842353 -3.0503300898164913 -1.0071459466348627 2 0 0
847 139 1 -1.1128 -11.520042139505051 -2.705112422113561 -1.0607039345754572 3 0 0
1140 236 2 0.5564 10.458430395757002 -4.227519821217673 -1.8037738267714074 2 0 0
711 93 2 0.5564 8.171924794927737 -10.043050210398794 -2.7429252967207205 2 0 0
52 0 5 0 11.353472944844873 -6.0017245565530395 -10.963841212705185 -1 0 0
220 0 5 0 11.303792666570574 -1.9917442754090682 -10.87392549194736 -1 0 0
493 21 1 -1.1128 9.353029929133783 -4.043045072299877 -6.607542066120991 0 0 0
963 177 2 0.5564 -12.010939751638015 -5.300127681285579 -6.145801540275857 0 0 0
107 0 5 0 7.291447290664693 -8.020235037979834 -9.053168785504807 0 0 0
28 0 5 0 11.3357263288262 -9.990292662838211 -11.061417171901619 -1 0 0
494 21 2 0.5564 8.796034726900784 -3.2668953831084373 -6.547893121670353 0 0 0
1206 258 2 0.5564 5.650769270957975 -7.87408112170357 -2.3089703126241283 2 1 0
434 1 2 0.5564 10.038008185144733 -7.1372994994375345 -6.251409761560331 -1 0 0
474 14 2 0.5564 3.892763095862557 -11.014965603429475 -6.4385274510494135 0 0 0
235 0 5 0 5.26819491979687 -3.8849088767277236 -10.987410836035115 0 0 0
71 0 5 0 9.281262622997396 -8.020143588886375 -11.017656023857832 0 0 0
459 9 2 0.5564 11.901327300743791 -10.285179980244726 -6.377313434879005 -1 0 0
598 56 1 -1.1128 4.582401694339521 -8.039212662603154 -3.872748634966703 2 0 0
49 0 5 0 11.312637097238715 -8.047716465902699 -13.101759115474103 -1 0 0
476 15 2 0.5564 7.556341987804482 -10.400994767595957 -5.662529160738567 -1 0 0
1069 213 1 -1.1128 11.20460085215479 -8.769963110038145 -0.9711375287101472 1 0 0
435 1 2 0.5564 9.863310328905307 -8.633686520746474 -6.400412016710914 -1 0 0
962 177 2 0.5564 10.726138647874016 -5.123134120610395 -6.188173855209041 -1 0 0
490 20 1 -1.1128 5.054023677773934 -3.4603805818520144 -6.388506710976816 0 0 0
234 0 5 0 5.327350088062977 -1.827912812719849 -13.025204632394415 0 0 0
458 9 2 0.5564 10.43321994249379 -10.615893807117715 -6.542191054144959 -1 0 0
650 73 2 0.5564 10.043672234085392 -7.2964650416862336 -3.6553999936900063 2 0 0
217 0 5 0 11.248775716797265 -3.838445750454737 -12.968596124317669 -1 0 0
457 9 1 -1.1128 11.028528240978527 -9.893790777628318 -6.341232778963274 -1 0 0
600 56 2 0.5564 4.7892921448848575 -7.984658780142461 -4.805732991318019 2 0 0
464 11 2 0.5564 6.074549819125536 -11.306212779563461 -6.587691625193479 0 0 0
477 15 2 0.5564 7.998955007326729 -9.474964137947701 -6.775388792082959 -1 0 0
475 15 1 -1.1128 7.258488098306581 -10.005851159272126 -6.481911785114204 -1 0 0
67 0 5 0 5.326468235781463 -8.000475812956585 -10.971988488289611 0 0 0
46 0 5 0 9.248267095391437 -10.02701816992034 -13.045820886616886 0 0 0
237 0 5 0 7.332398598808706 -3.8299314461219875 -13.085836040330816 0 0 0
467 12 2 0.5564 5.857081694279362 -7.384754475917799 -6.543173227091798 0 0 0
48 0 5 0 7.279008665672398 -10.08547085319778 -11.019022832688796 0 0 0
66 0 5 0 5.254596265086603 -5.898559763022928 -13.010076392147317 0 0 0
239 0 5 0 9.271294679095625 -3.97442688447329 -11.002623767324401 0 0 0
298 0 5 0 5.341651268518674 -1.9235942154962302 -8.95987133090826 0 0 0
1294 288 1 -1.1128 8.402054006787795 -1.927419003588312 -3.8638341067485746 2 0 0
492 20 2 0.5564 4.326972787106406 -2.8965594472064327 -6.6525267704813595 0 0 0
72 0 5 0 7.296874583261358 -5.989772949874331 -11.078056289828005 0 0 0
983 184 2 0.5564 10.769851996340712 -2.324126302805138 -7.004220541924007 -1 0 0
470 13 2 0.5564 7.231393597028651 -5.5921596868883645 -5.359903610157637 0 0 0
466 12 1 -1.1128 5.263476867020624 -8.127659429904263 -6.433717113371963 0 0 0
710 93 2 0.5564 9.287413455645076 -9.427850375410104 -1.9249340314026924 2 0 0
914 161 2 0.5564 7.490870317676829 -1.9704642408829882 -5.495251963487168 0 0 0
471 13 2 0.5564 7.834104991148857 -6.694815586373191 -6.20416966126804 0 0 0
94 0 5 0 5.332083407178586 -10.063548608402622 -8.986766436808745 0 0 0
603 57 2 0.5564 11.83623045935912 -11.719681267259588 -1.343048948757478 1 0 0
558 42 2 0.5564 10.096107651612629 -0.5568152265107529 -6.26387200471238 0 0 0
1468 0 3 1.1 3.316337636099394 -0.5506355393246958 -2.638395128953972 2 0 0
93 0 5 0 3.300170854545321 -12.05299873575776 -9.026003517965238 0 0 0
31 0 5 0 -6.780012937369583 -12.008270561062455 -11.000582499518773 0 0 0
687 85 2 0.5564 -7.716506502006293 -7.669733795672147 6.615850935731184 0 0 0
685 85 1 -1.1128 -8.028886058186535 -8.543339063754342 6.38031570280778 0 0 0
686 85 2 0.5564 -7.270692627604435 -9.11273231227743 6.511446201168303 0 0 0
850 140 1 -1.1128 -8.047780848358386 -4.28708897699846 6.871450316625601 1 0 0
852 140 2 0.5564 -7.165027392026729 -4.651205563628862 6.938021336821731 1 0 0
851 140 2 0.5564 -8.626809454313504 -5.044629329869647 6.955521983473731 1 0 0
1002 190 2 0.5564 -4.935394235125931 -6.876650185493796 6.575486289213552 0 0 0
620 63 2 0.5564 -10.687908323071033 -7.242122023165319 6.6802117011746684 1 0 0
1001 190 2 0.5564 -6.129152856204045 -6.726633990381734 5.65661114432977 0 0 0
1225 265 1 -1.1128 -6.008091167696246 -10.208002042706193 6.743030380035541 1 0 0
1226 265 2 0.5564 -6.087196011712371 -10.275940461716939 5.7915285961977645 1 0 0
619 63 1 -1.1128 -10.28288159860501 -6.393627302712097 6.500694442611811 1 0 0
161 0 5 0 -5.857611804194274 -4.315558045698266 9.104573367897174 0 0 0
158 0 5 0 -7.847356748479107 -2.2967789261216667 9.083564916808152 0 0 0
134 0 5 0 -7.925888809285858 -6.234774173054339 9.065380186056625 0 0 0
137 0 5 0 -5.866303920485216 -8.367343328396528 9.010513448200413 0 0 0
110 0 5 0 -7.9879287906631244 -10.322934138321742 9.009344596335367 0 0 0