# LAMMPS data file 
# Created using atb2lammps 
# https://github.com/simongravelle/atb2lammps

3 atoms
2 bonds
1 angles

2 atom types
1 bond types
1 angle types

-25 25 xlo xhi
-25 25 ylo yhi
-25 25 zlo zhi

Atoms

1 1 1 0.413 0.75929624 0.5314585 0.0 
2 1 2 -0.826 4.7181e-06 -0.072754234 0.0 
3 1 1 0.413 -0.75924474 0.53151345 0.0 

Bonds

1 1 1 2 
2 1 2 3 

Angles

1 1 1 2 3 
