LAMMPS data file via write_data, version 2 Aug 2023, timestep = 16000, units = real

592 atoms
3 atom types

-12.15958814509652 32.74516585669389 xlo xhi
2.316358282925984 18.26921942866687 ylo yhi
1.3959542953413138 19.189623416252907 zlo zhi

Masses

1 28.0855
2 15.999
3 1.008

Atoms # full

43 5 2 -0.9155517839327257 -1.942509038115888 7.017063269724384 2.0384583772613913 -6 3 -5
497 56 1 2.050976904143187 -5.149265214245588 6.165583992816528 1.6241840975169481 -1 3 3
170 19 2 -0.9905696102259883 -1.8923636050599681 7.312319602183737 6.955020334806358 -5 -7 -3
418 47 2 -0.9576421873367612 -2.2671889923544586 2.513965301076429 9.946397601121232 -5 2 1
171 19 2 -0.8888316137574263 -2.624466096568592 4.0008989266929795 6.104810705916341 3 -2 3
570 64 1 1.724392434199111 -2.4282100391565997 5.686043911315952 2.6743173394715365 -6 -4 0
162 18 2 -0.9276823369996099 -2.7813262828898475 5.474188809498919 4.190627388032566 1 0 -5
45 5 2 -0.9695285737129352 -2.71278383442758 9.217300156035565 8.452495642895096 -2 -3 -5
91 11 1 2.000356183414217 -3.1708736642675825 7.830638752346581 7.739647061297142 7 3 5
112 13 2 -0.9749916697840084 -3.7402392610560646 6.892752851198346 8.838503499848917 -7 5 -7
370 42 1 1.825427355556754 -3.6920721906817495 4.404456404639516 4.993919215214054 4 0 5
320 36 2 -0.9363158350124871 -4.070944647308525 3.123341382690785 4.0973068999824465 -8 -1 -5
464 52 2 -1.055995336217411 -6.487599299510357 5.380144546091273 1.8645798557718685 -5 2 3
382 43 2 -0.9828740004758434 -4.449476049089413 8.149434181065399 6.79937234812812 -5 5 -5
477 53 2 -0.9163612695010152 -4.345461641439293 9.752487814013229 3.409042824958871 2 8 3
5 1 2 -1.038743476239939 -5.054670060246242 5.059100690956129 5.526915724455841 4 9 -1
216 24 2 -0.9405386842396694 -4.785932345768313 2.61481514602016 9.463842383601584 -6 7 -7
273 31 1 2.034792811292615 -6.228341160095435 5.061146200340892 6.543715741460638 -2 -8 6
446 50 2 -1.026560777959248 -5.189246060480543 7.407428350916508 2.5781349425919062 0 -1 3
13 2 2 -1.018011005258112 -5.662692195634067 4.488125734903206 7.917308633125215 -1 -4 -2
381 43 1 1.930867934606149 -5.520478430895406 4.024891736180849 9.439804936131209 -2 -1 -5
420 47 2 -0.9774559021280348 -8.408187194090612 8.419656440012055 9.60592281419675 -1 -4 2
501 56 2 -0.9664422895933558 -7.0216094087378265 8.928711889209275 7.40332768987224 -5 7 1
35 4 2 -0.9802396359941283 -6.751918330373862 9.316958191562554 2.4276609170436143 5 4 2
373 42 2 -1.028736511427747 -9.071997397809742 5.042443524347485 2.1468389900425997 -3 3 0
227 26 1 1.905611027398329 -8.014317982669878 3.038109584011096 5.026171677243049 1 2 0
107 12 2 -0.9642229935984624 -6.6394521476233725 6.616868973711499 6.714742895314853 -1 -1 -2
422 47 2 -0.9649744966123491 -9.361235211966704 5.1587583100935275 8.557579662916368 0 -1 -2
111 13 1 1.939698217500581 -7.867378025319842 9.518119470913732 8.591337584249015 0 -3 5
131 15 2 -0.9864825927529767 -7.406414737887295 4.191441942178324 5.978522554013728 4 4 1
558 62 2 -0.9562768725379682 -7.084491089666844 4.177102595937029 9.907143196196778 3 2 -4
57 7 1 1.974473091147161 -6.030109417918223 8.066349310955095 6.473305066988191 3 5 -1
289 33 1 1.978096596773273 -5.5882880280783365 8.744310698102993 3.345807802953134 2 -4 -1
311 35 2 -0.8999952705832543 -6.094512131547851 8.508524680442829 4.924366672992445 0 -6 0
550 62 1 2.009030168641382 -8.682057181215317 4.2399144662184485 9.651120145139878 -5 1 -9
284 32 2 -1.003539872685504 -3.7673221820602203 5.413749843783135 1.9591814998730352 1 0 -1
27 3 2 -0.9740827863525904 -9.309012186024521 2.808705277748262 9.40396951686998 6 11 0
493 55 2 -0.9295117425412186 -9.266603661835157 3.7957452083248358 4.338255034305973 -4 1 1
256 29 2 -0.9679836527057933 -9.983836459420589 6.395420933908044 4.143126482678305 2 -1 -3
173 20 1 2.036135365140717 -10.007914917915457 4.950748135205584 3.4304255235127523 5 -7 3
236 27 1 1.989575715233611 -10.638984494813172 6.088845299071338 8.14909769123772 2 1 -1
278 31 2 -1.003977702302454 -10.69074730854866 7.223472186894743 9.272575443374537 1 7 4
180 20 2 -0.9319552312022535 -9.792453792626798 8.756138989742624 5.208465877908505 7 -1 5
324 36 2 -0.9414120968400005 -11.539916423656646 8.812326244880419 2.219578777701166 2 -1 0
498 56 1 2.027834951283232 -10.515600351758797 7.30309589183014 5.338883373896006 2 5 4
553 62 2 -1.014392243821771 -10.21779241633146 6.6869648575268865 6.7427508875314555 -1 5 0
228 26 1 1.96823143170855 -10.394158638285802 9.927292478797154 1.9593188592768878 5 -1 7
239 27 2 -1.007356227984904 -11.544512071298918 4.763785878812848 3.1554395102535735 4 5 6
411 46 2 -0.9578404294194413 -12.10324894324607 7.4637275153340665 5.172085068930812 6 -8 -7
186 21 2 -0.9446087305927415 -6.801555127289256 2.359663210402001 4.171498268996722 -7 -1 -4
476 53 2 -0.9661056026940158 -12.078783192106107 5.3925806655942035 8.18005513830445 1 7 0
517 58 2 -0.9351602574098364 -9.265226654635454 10.252097504704073 8.1415698107209 -4 -4 2
559 63 1 2.051127790372484 -9.85297748848844 8.140915063570011 10.288728003225959 7 -2 1
479 54 1 1.713481346414419 -0.9814335235822258 3.9889250930977473 6.021450861626056 0 -2 1
106 12 2 -0.8687671616055198 -11.965764174357073 17.139929603989028 5.224012802520171 -2 8 -4
163 19 1 1.961235844505202 -9.84528301611216 10.352016656430875 4.937954698885667 1 -1 0
439 49 2 -0.9773240435021342 -9.956064325920401 10.557539452369873 3.3407123029273027 -7 1 1
482 54 2 -0.9256098343401202 -4.326826308438835 14.478418085498584 2.4364679970871306 9 6 3
372 42 1 1.945414630060813 -3.424307737971429 17.635482658539246 9.31201307134416 5 5 -2
58 7 2 -0.9230119009586067 -3.3037466166319156 17.197159190170836 7.7460877663186976 2 1 1
471 53 1 1.818120453949646 -5.218039411753847 17.855891682470315 4.297135386034329 1 0 -3
456 51 2 -0.9711195039825249 -4.951009735395348 17.29332024589768 5.762993196385769 -4 -3 3
460 52 1 1.789677645805255 -5.622275239839117 13.519970658962881 2.162357363674779 5 0 -3
441 49 2 -0.8878473847222782 -3.0954906754090206 11.352921837028715 1.6358530810052583 -1 0 -3
491 55 2 -0.818249747532092 -5.271529005911315 12.179860392843093 3.17458341546767 -6 1 0
12 2 1 1.870771913285582 -3.913168737868143 16.369253213856375 6.506601654900674 -2 2 1
200 23 1 1.963511533398647 -3.722764355419676 15.961369559291422 2.363163874759884 0 3 -2
403 45 2 -0.9776381626330113 -4.71625481647464 16.769104648804788 3.260036540142335 -2 -2 -5
336 38 1 1.852453681831134 -8.470885192484344 16.22392041621958 5.9227246058056595 -1 -5 -3
426 48 1 1.928363917309648 -3.0735121094442053 10.74715841941346 8.068142999554896 0 -6 6
67 8 2 -0.9559148100172054 -2.7083424192808447 15.919517744249505 5.53303888874541 -3 -3 -5
431 48 2 -0.8693168677206071 -6.720656285543449 13.105493891778009 6.45931582191848 -2 -6 7
410 46 2 -0.908423209396881 -9.156226025347246 12.67707475197916 7.1968568837576745 4 -3 3
80 9 2 -0.9831253186046232 -2.135286594697249 15.960607611339903 2.6654499228416926 -7 1 4
526 59 2 -0.8701603421114495 -8.511085147152292 10.99561821604262 5.472613365704806 4 -7 2
11 2 1 1.758105894883617 -6.287203248969805 14.554624492532279 7.017544750557879 3 7 -3
303 34 2 -0.9508489138467092 -2.7828286378560203 11.060512759423329 6.530707067287203 6 -1 4
453 51 1 1.681891066712192 -8.155225074746268 12.555678683188116 5.92441870893943 -6 0 3
384 43 2 -0.8564529974144247 -2.8821466429966023 12.002223958194246 4.167057343948389 7 -1 2
496 56 1 1.947083696896327 -5.497271591604551 11.054467032681595 9.672888109622663 -4 0 -4
348 39 2 -1.002707618577127 -5.638028568336198 12.556450227876773 10.153002917904598 -4 1 3
34 4 2 -0.9093328865320138 -6.508825931204436 14.601576334547264 8.687564830110885 -5 4 -5
533 60 1 1.841117867642287 -2.0417399602790125 12.042975815402354 5.572747041477393 10 -7 3
421 47 2 -0.9426542765898558 -8.550599509829826 17.783197446188293 5.927861166011309 -1 -3 3
540 60 2 -0.9281923966701084 -6.9473011853669675 14.352523002872877 2.2543584724641654 -1 9 13
252 28 2 -0.9385280273370175 -7.008673938073093 15.592794154376062 6.017627290767323 3 -6 -1
167 19 2 -0.848040734979237 -4.7181528699215995 14.92285306792505 6.811151726017899 -4 3 1
337 38 2 -0.8324783327172204 -8.4643261291508 13.261376848339754 4.470435416656885 -6 1 -1
277 31 2 -1.021906775611195 -7.010620343126575 10.62717993576179 9.305404757109217 -2 2 -6
527 59 2 -0.9452967702370744 -4.620709262449424 10.98596064906694 8.332877105927084 -4 -1 0
103 12 2 -0.9653855491134301 -2.459443083334493 11.78387185742435 9.060704643599806 4 7 -8
327 37 1 1.729556485701831 -3.904798733231753 11.284371851468704 3.08396111691177 1 0 6
304 34 2 -0.943593468882776 -1.7449443709472126 13.50906648909127 6.2387539085058386 6 3 0
176 20 2 -0.9711767459296724 -9.220820164888366 15.545518309033762 7.227289908621596 5 -2 -5
413 46 2 -0.8685408892770187 -9.249497784401058 15.703781736389477 4.601517181701303 3 2 1
26 3 2 -0.981828950339157 -9.472108425659503 12.263968029569043 9.904668033321855 -1 3 -5
335 38 1 1.678557652980215 -9.772619705361597 14.219778155228267 4.120272695276626 2 7 0
449 50 2 -0.8665518285950427 -10.451310493848354 14.000685327832374 2.6050548462528864 -5 2 -2
365 41 2 -0.9780040041532089 -11.101738992816816 17.12486401401263 7.67728356563681 1 0 -4
71 8 2 -0.9818076578435218 -10.020842907157261 16.13625891596817 9.619574462090002 7 -2 -6
166 19 2 -1.000746279902238 -11.600475779957367 14.562422624305738 7.988101894440673 4 -5 3
414 46 2 -0.9166011196547401 -10.93925460760287 13.75919310868944 5.138317211303386 8 1 -1
226 26 1 1.987528277587922 -10.468527187250725 15.751157062932597 8.143407928998055 3 2 0
14 2 2 -0.9062296211230684 -11.427229452009152 12.03086427509555 8.246912529278962 -3 1 2
438 49 2 -0.9993131687137567 -11.090588179031581 11.122900565079764 5.471038563163592 4 -4 -2
506 57 1 1.844112356446869 -11.905147101597628 12.46641958358222 5.121042947564764 -2 -2 0
65 8 1 1.823359642180293 -9.839989648813157 11.751004098859562 8.37370417935693 4 -4 -6
191 22 1 1.92871610487963 -1.4370822059026243 14.974528282642131 5.67537999640733 -3 -1 -3
416 47 1 2.021252057098017 -6.218026691409457 14.012351140256941 10.181225454213225 -1 3 -9
473 53 2 -0.9402371724368245 -3.4022541526722905 16.216950444154744 10.059111432749567 -2 -2 1
127 15 1 1.807373871048472 -1.3038281407383936 11.735943191625811 10.17397026529182 1 9 3
499 56 2 -0.9181495346432867 -9.12657199325684 15.790233908445995 1.5200500394060956 3 -8 1
6 1 2 -0.9524006600777247 -0.9922145659514198 13.867939906541997 1.7078760745479218 -2 1 -8
529 59 2 -1.003843967128325 -9.146163269635307 9.198926527641015 19.111829967764052 0 -1 0
164 19 1 1.852521008414478 -4.227235184150674 6.616524860939907 10.399193258609785 -8 7 -1
503 56 2 -0.9164130303284562 -4.6642241182831325 5.063888329784813 10.348011008643903 -7 -4 -2
181 21 1 1.538494975130347 -1.8529250901337304 7.405243904511855 12.331265288383769 -4 0 -4
475 53 2 -0.9146474926030171 -2.31430109458217 6.760757973994304 17.22049658741458 3 0 -3
21 3 1 2.076903135877678 -7.8354797493009745 4.8814695454631805 18.976005888125865 -1 0 -4
429 48 2 -0.8228706901144952 -2.856860986149581 2.9097997334183305 18.14178418484649 0 3 -2
259 29 2 -0.925587031912062 -2.822494049192578 6.859064354559497 11.155001337539915 0 5 -3
222 25 2 -0.9356097449253582 -2.4155091428860973 7.870080247150479 13.778255136143347 -5 2 0
18 2 2 -0.9705508404635472 -3.7213955843383717 9.795781172670587 15.186966186275868 -4 9 -4
82 10 1 1.948152863720513 -3.7842726700925087 8.412751115142905 14.381927903417102 -1 -5 -5
294 33 2 -0.9366569879954191 -4.267607219237667 7.410708287169112 15.498851469714852 -10 -8 -9
556 62 2 -0.9152729828729748 -3.2022034737406155 4.855469966173296 13.363115706768712 -2 8 8
246 28 1 1.797347330638212 -3.817979364750286 6.419385457321902 16.725758694292892 2 6 -2
148 17 2 -0.860606440770241 -4.0200501967114 4.975838970777665 15.928875397736231 -1 -3 3
483 54 2 -0.972563203279205 -4.918433202672449 6.562516464974101 17.904310548811903 0 0 2
254 29 1 1.930260032600942 -7.606011256351871 9.484132253507836 18.870504071935784 3 -6 2
177 20 2 -0.9858764743387883 -4.6390047240823735 8.681946938521872 13.052378662906047 -2 2 1
519 58 2 -0.943424357097933 -4.62320065142018 2.9924477959141718 14.153000716187599 -5 1 -3
8 1 2 -0.9556536653662574 -5.3639414169937885 7.653354717706444 10.834109851871613 -5 -1 -4
469 53 1 1.855770775011474 -4.444429190709263 4.564995021795466 14.36717308252765 3 6 -2
89 10 2 -0.9607130937696091 -4.9471520612841084 10.15376310723773 10.841291616343389 4 1 -4
44 5 2 -0.8885329551321839 -8.804679194746837 10.082019033162002 14.232322716652671 1 3 -3
9 1 2 -0.8923278901740113 -5.803669403695592 5.277700857707646 13.938298534723764 10 -1 8
24 3 2 -0.8951195044759039 -7.114592855651338 9.331524631829623 12.24723383444626 9 0 2
30 4 1 1.563311627918255 -8.716486149023096 2.819713371567167 15.055426331094726 1 -4 3
266 30 2 -0.8758751862594218 -7.434689416299825 6.762720561061618 15.591572011119922 1 6 -8
215 24 2 -0.8581206388746371 -7.65585457463674 4.002539391716784 15.189994302577194 -3 9 5
447 50 2 -0.9701147585225197 -8.419722409565964 5.684765425715006 13.295699467227841 -1 0 -2
545 61 2 -0.9623017849840243 -7.533896736555927 3.437720286224891 18.392015831569317 2 -3 2
245 28 1 1.803548512771522 -5.583467685658812 8.934952061212918 11.785651862358376 -10 4 3
243 27 2 -0.9957900975137153 -7.335409304989695 8.330268925938958 17.77077069415193 -3 -7 -10
183 21 1 2.039870032027012 -8.129291970738135 7.2083362558683 16.988758182472967 2 -4 8
399 45 1 1.762647370003611 -7.3441098285581266 5.481420159969117 14.503698985353862 -6 -2 3
359 40 2 -1.020727653029253 -8.078096303787746 5.833467201380215 17.730710133860633 7 -9 0
548 61 2 -0.9088637139929562 -2.7566869363717137 9.0549886423548 18.334910344227122 8 -4 -3
47 6 1 1.704507453157284 -1.7245323201401472 7.765238181306466 18.38958180629811 -1 -2 1
88 10 2 -1.059324206606876 -9.267522639780202 4.834824620579889 10.997053174668972 3 -3 -4
367 41 2 -1.067421501365216 -9.558270684509143 7.303191299173469 11.54890862077434 0 -4 1
318 36 1 2.122940593597721 -9.521745629459978 5.864773047530969 12.150305334013293 0 6 2
248 28 2 -1.013733822286627 -9.673830194162335 7.58703856947159 16.733339263846144 -2 2 3
206 23 2 -0.8506824892362626 -10.05307556267967 3.3300091690589357 15.768136962350969 -4 -5 2
486 54 2 -1.042056871000369 -10.748031837896214 9.37093464923383 10.607044105591312 -3 -8 -4
388 44 1 2.077340432516974 -11.16536592245624 7.814733074475342 16.319379580787647 2 6 -3
133 15 2 -0.9948441015145526 -10.995960052215874 8.95538762798754 15.224421392283462 3 0 1
291 33 1 1.674898032187443 -11.530916284672509 2.68753072288387 16.183534000246517 0 -2 0
512 57 2 -0.9834669371176299 -11.820168964081615 6.437628629511889 15.861543266765914 0 -2 -5
139 16 2 -0.9823968585575997 -11.006607022988135 5.52168985789059 12.60677894309745 0 -3 2
568 64 1 1.517994380322349 -1.6521987901709174 4.440708961312416 13.274915105717506 -4 3 1
54 6 2 -0.9039121436418613 -1.3235383799741314 3.231213086323545 12.244269057010287 2 3 5
147 17 1 1.372013433840314 -1.2650578697914034 3.136860378525996 18.43647667531322 4 1 -8
244 28 1 1.801738435775823 -0.9349781018233726 2.9398237418683966 10.746229929275547 -4 4 0
445 50 2 -0.81631688442865 -5.274707102864892 2.4220014180949136 17.23082723263296 2 4 1
457 51 2 -1.038302521352713 -11.969580653293706 8.272218758411695 17.604251086607785 2 -1 -5
31 4 2 -0.9184446973202395 -3.8339110285367766 16.491692771383182 18.637889390497623 0 1 4
286 32 2 -1.050988571406278 -4.083675330244557 12.231626185248366 14.859533699172829 -1 -3 1
362 41 1 1.460455312458552 -1.144106953581628 13.66846463600173 17.920163810712396 -4 1 5
480 54 1 1.86929952422559 -7.8543355197425875 17.40702739525365 12.6312782956934 6 3 6
130 15 2 -0.8620473137225024 -2.903240046378705 17.119366784861523 16.20536570589567 -2 1 -7
253 29 1 2.016221849679016 -5.639977079319988 12.344774402719594 14.648528638112209 -2 6 4
341 38 2 -0.9622524212810974 -8.25580590508156 11.768599619478847 12.15518446757977 1 -2 4
376 42 2 -0.9643694513336336 -7.655100316052445 13.84445932714215 10.827842803659014 -7 -8 -1
114 13 2 -0.9589385701968444 -6.344177008723078 17.989963094397993 12.58715506178382 3 2 3
56 7 1 1.962194435910241 -9.726090215840834 17.51229452382921 10.338453252183202 -2 -5 0
434 49 1 1.740820583883411 -6.595961540671676 15.173096790890096 14.063630275848318 1 -1 2
560 63 1 1.70805268589226 -8.343245715443672 15.780144485465533 16.351652745039225 -1 -2 0
23 3 2 -1.032693845399125 -6.482949118696937 11.280652981485426 13.85912481592061 -5 -5 1
343 39 1 1.640252731844392 -6.706017166816768 18.088029027337402 18.00482088277528 -3 -3 -1
143 16 2 -0.9151766698759201 -2.6589832439755368 14.518152066894249 12.09402915494044 -8 0 -5
52 6 2 -0.9754578411077603 -1.7297454354952333 10.913542694541048 14.271251820020193 4 -8 -1
541 61 1 2.09335675034815 -8.904634280253081 12.894144887072102 11.222922651556848 0 -2 1
437 49 2 -0.9914043356167284 -6.779975299392543 16.92893164298444 19.00119756336244 2 2 1
537 60 2 -0.8902563899242752 -1.9605432103031737 14.748064384211423 17.05656788291428 5 1 3
258 29 2 -0.9319921378678347 -5.596371762289989 16.398695351492098 14.416998916019242 -6 3 -1
326 37 1 1.760751233576499 -10.33065746429705 14.730181324046985 18.976553402946195 1 -1 0
355 40 2 -0.9129614336455858 -8.365628952681469 17.28544755431637 11.103706739194138 -5 -1 0
562 63 2 -0.8633883394944862 -7.831679176673353 17.348414346304097 16.366544462081542 3 -1 -2
240 27 2 -0.9052546372725464 -1.962210509281636 11.750665818739183 11.660682646773063 0 -3 0
255 29 1 1.817366862208357 -6.032723750088808 11.647921395282484 17.598480224235917 7 -1 -2
329 37 2 -0.8512758442385837 -11.476482097577993 18.132819741154464 17.775834325691797 2 -4 3
134 15 2 -0.9245845900494247 -9.970912503281669 15.854426688851861 16.166192876478068 -1 -5 5
113 13 2 -1.016844591250966 -10.037188208751072 13.613259335220832 12.035564306986107 1 -5 1
205 23 2 -0.9184897102915781 -11.672738340249717 15.508197749029728 18.626731500136067 -1 7 1
207 23 2 -0.9891380313392252 -10.921031950280211 17.847026387435513 11.299056062667644 -1 0 5
73 9 1 1.788037475574261 -7.543090825737165 15.565175465764373 19.131815598852953 -7 1 1
368 41 2 -0.9398560075094826 -9.886208316626373 11.200774635283754 16.367670742943695 0 -7 3
219 25 1 1.780495596131236 -11.275657202831793 15.736049961736484 15.164690055425346 1 2 1
361 41 1 1.948561700216589 -11.396047776666704 14.22835512784205 12.55826934115787 -3 -7 2
225 25 2 -0.8759302612180624 -10.076158572823582 13.50435951675915 17.90052316683635 -1 -5 3
129 15 1 1.867582047336182 -10.713115593308231 12.020714939439 17.48143385352674 -2 -2 4
42 5 2 -0.8449226721861943 -11.851392627311377 17.276960167767008 15.259559183838709 -1 -2 4
305 34 2 -0.9752903168797534 -10.855511799400645 11.092905337332558 18.753406509769484 -1 -4 13
261 29 2 -1.003897948223113 -11.084798895477434 11.319650470437058 14.098169382441974 -3 -5 -7
415 47 1 1.883146192619993 -10.221284889761773 10.368380320651994 15.032989677697525 -1 1 -4
87 10 2 -0.9627314573975214 -11.049424743374487 15.352823017989905 13.672121053821288 -2 -9 0
217 25 1 1.841645817895788 -1.4205830231435095 14.589463897750937 13.115297842575266 0 -2 -1
209 24 1 1.780688945876034 -1.0903342111815817 11.67965084155542 13.057313579547648 0 -2 -4
223 25 2 -0.8952724108290591 -1.846724825776982 15.412235176783083 14.462836997063839 1 -1 -3
218 25 1 1.778961470248742 -1.7436424051990715 15.976177328075474 16.012770843245033 3 4 2
121 14 2 -1.002592173733832 -8.819547509713395 18.139562512317184 13.621277830459201 6 -3 -3
99 11 2 -0.9147584846414654 -5.469046991400342 12.887223178287703 18.46608366490728 3 -3 -1
193 22 2 -0.9427322333371978 -7.29401191509052 10.959240043111976 18.349779286580056 0 -3 3
68 8 2 -0.9593879762594212 -4.913850848156252 10.478670786216261 17.686872987233002 -3 -10 -5
378 42 2 -0.9363473871933408 -5.178736334229631 14.862847450028013 11.040636603631858 0 -6 2
504 56 2 -0.9353014948586773 -2.6110671917026784 11.272859842766517 16.82315131362643 -9 -5 -7
185 21 2 -0.9015343950912349 -5.823370475763168 13.772473579749219 13.874408453786227 -6 2 -1
478 54 1 1.92691047443111 -7.686265848387354 10.594620000113988 13.143636137867906 5 4 3
293 33 2 -0.8719308203864853 -7.777518074924303 14.911342733656255 15.164141597276958 -2 2 -2
247 28 2 -0.8712499379112352 -7.663625547330962 15.008487012081488 17.598731021781987 4 -7 3
298 34 1 1.814762029186256 -3.349526610339137 10.503410153217294 18.04840753776008 3 2 -2
502 56 2 -0.9663316525466372 -4.059166466907556 16.77356981078727 12.51438720454247 0 2 1
128 15 1 1.895388131917788 -3.7696735872361313 15.570398068752676 11.473584772436213 -5 1 7
20 3 1 1.895153796538968 -2.9924344785542996 11.207164765017973 15.231533133479548 4 0 -4
172 20 1 1.926878904036294 -5.05985983638721 17.594477621522866 13.439111721034374 -2 2 -3
518 58 2 -0.9286327658702846 -6.264147805457036 12.281045975073305 16.111495017684366 -8 -1 -1
444 50 1 1.685773135097526 -3.7706031995066933 17.69369465967367 17.501779127759054 2 -8 -2
571 64 2 -0.9024010346349242 -7.577923594498103 15.897240006478423 12.971229284416589 -2 -2 -1
296 33 2 -0.9414176671103256 -0.509216161993444 5.481685171913579 5.65317653121419 -9 -4 -4
530 59 2 -0.6575544744625114 2.3349518508322995 8.194475295480437 1.663753874901702 1 4 -6
331 37 2 -0.4465255927815835 5.1312925742118605 8.08334875113703 2.1265748738258043 -3 1 -3
55 7 1 1.197627245714883 0.7951306766052507 8.933370030827552 1.7207012480996209 -2 -2 1
549 61 2 -0.7530655323410466 2.010591443637306 10.128400625682199 5.535067709550006 1 2 2
509 57 2 -0.7375235389707955 2.7916135420014117 7.566263154856836 4.421878353513285 -2 4 -3
417 47 1 1.174922112829245 3.690453018886815 8.620440706412454 2.64625655833871 1 3 5
84 10 1 1.258600005974698 0.03546526468369204 3.375297484751304 3.3724373685330673 6 -3 3
155 18 1 1.263867080627511 1.363541888199562 8.394914484087144 4.674272012844377 -4 -1 0
295 33 2 -0.7933457042321468 0.4766096019899787 8.810197922742727 3.2958784368507206 -6 1 2
531 59 2 -0.8160848326714137 1.8747484685638285 4.051181330071492 8.324142636803748 2 4 5
468 52 2 -0.8350914883257651 -0.38196488420588137 2.985260979988481 4.8824877046114405 6 -3 9
104 12 2 -0.8414449881607871 -0.47204372850090914 3.691477012869372 7.5179015811088075 0 -1 4
487 55 1 1.559736039120981 0.36875167820834037 4.686823797118471 8.554585905746288 4 6 4
357 40 2 -0.8566549246129941 0.18381152705401405 6.28262287352624 8.085784120741488 2 4 5
405 45 2 -0.8449290498288671 0.5431054523415983 7.855315611333454 6.02087668025681 5 -2 -3
232 26 2 -0.8965543649470656 -0.25360995612456555 4.312631508396201 10.054093518370166 -4 -2 0
136 16 1 1.823098263414107 -0.4485926980958137 6.786169116684394 6.64113307908987 -4 0 2
387 43 2 -0.8075676879325312 1.1271015821216612 2.4834443378669606 2.5474622124478374 2 4 -9
525 59 1 1.403832104687656 2.325717653541041 2.4968653159711547 8.315789448071007 1 -6 2
590 0 3 0.3132801667706978 3.482780365804291 7.9106562922997155 5.19276022349092 0 0 1
564 63 2 -0.7298900571440845 3.517046088784895 10.227640746481143 2.7075506890682117 -7 6 4
589 0 3 0.3671746026416929 1.59991061218955 10.095750850310777 6.444745676628384 0 0 0
492 55 2 -0.8294231481861045 -0.9007766171856058 4.309765319315708 2.4221510981117245 4 0 -2
578 0 3 0.3517969684483842 3.4816814670008474 18.149118741244816 6.13582168625675 0 -1 0
69 8 2 -0.690204900707824 3.9987523104276907 18.129485347927062 6.949580370268529 3 0 -3
581 0 3 0.3306075391036594 4.007894286115219 17.100756957864835 6.975498314490478 0 0 0
188 21 2 -0.8434445107448568 1.3267091119431516 11.946851110475068 3.3146761485281715 -1 0 1
532 60 1 1.644308720036932 0.9935082025137534 13.860953671082555 9.633860095441477 5 0 -3
412 46 2 -0.8936755260671179 0.7010611145929689 15.343473131111642 9.01182168603812 2 -1 -3
461 52 1 1.111070029986334 2.226100848128521 11.292133133235021 2.1254549623336594 1 -9 3
400 45 2 -0.8874837106135222 0.5466522116034606 15.79328118412917 2.299629869762936 2 4 4
282 32 1 1.639929557506652 2.5001735209908826 13.449408692367108 7.084626837236978 -1 2 -2
495 55 2 -0.898713306300626 2.149666726907411 15.036138986188728 6.991625100957435 -1 5 6
157 18 2 -0.8588126828259794 1.710062739719959 12.666827417960404 5.807846147697117 -3 -2 1
132 15 2 -0.8835655965328439 1.8776112099377542 13.010095984936772 8.526366939836985 -2 -1 -3
385 43 2 -0.8019713746804394 2.7483972517602058 17.969274299680606 9.800153379970771 -4 1 1
555 62 2 -0.8496463297609582 1.3495371294415066 17.49963827350773 7.440631314259094 -2 -4 4
72 8 2 -0.9418531316168879 -0.5235286672073214 15.706570190925845 6.737370320663897 0 -3 -4
451 51 1 1.552688339063364 1.025890615076641 11.676436838196167 4.832221149270361 4 -1 2
465 52 2 -0.7445869942122109 4.079344141013926 13.265819677292928 7.097811280541664 9 -3 8
2 1 1 1.732214598371571 0.85657488345696 15.934511201935628 7.495926161834706 0 1 0
265 30 2 -0.869794444138596 -0.3722125603527252 13.021895724712818 9.974085480577314 -1 2 1
577 0 3 0.3706623736219756 4.435472891767364 13.094227219587397 7.987248709120389 0 0 0
17 2 2 -0.8501980061666495 -0.23730525444178993 10.548641605561013 10.179198124203166 1 -1 4
238 27 2 -0.9384589085337598 -0.6459525418915977 14.733441643170522 4.300747185181841 3 -6 1
423 47 2 -0.8553356165774062 -0.5516424538000346 11.363420427561168 5.30823171325215 -1 6 6
561 63 1 1.598605091751763 0.8053008329613563 17.21205787286314 1.5012552584601633 -2 2 2
235 27 1 1.883751042341854 -0.8261199593776916 15.061923246102495 2.6982297321439273 -6 6 -6
233 26 2 -0.8634536331691287 -0.8913120317155001 8.537521956161195 11.751593326903897 8 -1 2
587 0 3 0.3638411263949957 -0.4356566192654821 5.67005785160959 11.500231885409013 0 0 1
585 0 3 0.4090949590556885 3.876392186454105 9.252300760935569 13.172567682458247 0 0 0
588 0 3 0.3915231320001984 2.1319661282075257 2.4305461201143634 13.177344118002656 0 1 0
272 31 1 0.8732020969052754 2.5779843534417637 7.859411056163803 12.002288205649158 -4 0 0
323 36 2 -0.7170535901492889 2.2173886423127573 2.8643845133007635 12.278107958797188 2 3 -3
394 44 2 -0.7089708613012412 1.8829661168165142 9.04687763778852 11.17971976771093 2 4 2
543 61 1 1.565335187568373 0.2954387026408707 9.670240854590485 11.496111896749051 0 1 -2
319 36 2 -0.8020327010049597 -0.19492042002127774 8.411803585785464 18.418702396310252 -1 -1 -2
308 35 1 1.34900562448237 0.08051204008625969 3.7650521826885206 15.823813689343988 -2 2 -1
358 40 2 -0.8244965097284558 -0.36412148678806905 3.9512875434717074 17.37062730532417 4 3 -8
279 31 2 -0.6658486820665842 3.752945486110228 8.37943525781297 12.934150358426917 0 4 0
520 58 2 -0.8231652013163232 1.2276234519855833 2.5915938026603396 15.627974426535944 7 7 -5
528 59 2 -0.7539166131631572 -0.4537316874937574 5.952020290110475 12.48509514530597 4 1 -2
572 64 2 -0.8687382523778358 -0.9244176967693954 4.010959120035017 14.631964847671274 -7 1 -4
62 7 2 -0.8776003041355532 0.2032215745657666 10.829826434524536 12.637777694480228 2 2 3
514 58 1 1.712386761844448 1.2878925148006117 17.005029020567356 16.319511252860938 -1 -4 0
458 51 2 -0.8417675038879218 1.7001478501090246 17.183324476121772 17.89360008528314 -7 2 -6
312 35 2 -0.8925703125906125 2.255949326195435 16.33840340199159 12.019786631498482 5 5 10
582 0 3 0.373315210206673 4.736226698027221 13.902197730296706 15.602684347212875 0 -1 0
241 27 2 -0.8611067927264716 -0.70247930941051 17.57900829072627 18.783017454640387 -3 -8 0
297 33 2 -0.6952208879690274 1.2737955072879403 11.077114570747618 15.766432583514584 1 -7 1
339 38 2 -0.9865358373958145 -0.23380770580643687 16.50323832575718 16.254103959182483 5 -8 1
178 20 2 -0.8892717972555614 1.9298626109103418 14.235397029060882 13.682703961843892 0 12 -7
546 61 2 -0.9256557284873859 2.3645268587120003 16.068172274315643 15.597535099999957 -1 -2 1
450 50 2 -0.8238182687047091 1.7496204805656983 13.950385358155128 11.149115981516474 -4 5 5
586 0 3 0.4084291102506386 0.5440500913870129 11.374009989321724 15.2042870587412 0 0 0
117 13 2 -0.8696565052395155 0.2532613120378716 17.796888395570353 10.636617708261303 9 2 -2
234 26 2 -0.8238546874900132 2.4206470902573565 13.498637697784318 16.356507429385527 2 -4 3
174 20 1 1.560295048271156 1.8439201012341238 17.68765283720228 11.18891956951252 0 2 0
467 52 2 -0.9245634117542714 -0.06959575410736166 12.840303940706347 17.086975890547354 9 -1 12
510 57 2 -0.6713778679336186 4.337907527509 14.37580118023198 14.856450368504024 -5 -2 -2
452 51 1 1.791851968669205 1.4660534130822838 14.972424936751471 12.388632945141223 5 -2 2
109 13 1 1.599309908905472 1.3842482725137208 12.225114187850265 16.9438932022532 -1 -7 6
1 1 1 1.604076666357521 2.7012999962204405 14.588566580525267 15.125096908432466 -8 -7 1
125 14 2 -0.9431846855076831 -0.12679349144877752 15.27861104661733 12.464694173191353 3 1 -2
25 3 2 -0.8207443428924621 1.966800455344423 11.559781131863046 18.29804362508175 4 3 -3
184 21 2 -0.9584058443262587 -0.7837576832784364 13.176407705841829 13.524971522658094 -1 5 -5
214 24 2 -0.9092671342383583 20.854722365157006 7.404996241613377 9.175529778954953 7 -1 6
49 6 2 -0.379084967618542 17.814292024221526 5.617070926497896 1.8730752068462515 1 -3 0
349 39 2 -0.8771745832683813 19.903441995766386 3.8034287397714426 1.9322304207991379 -6 4 6
158 18 2 -0.8637137562855687 19.71430126680339 5.975649078945243 3.757310194653128 7 4 -4
237 27 1 1.416720446199368 19.015698840863273 4.903545882977057 2.7455063904548984 -8 4 4
59 7 2 -0.3294806813942592 17.40037088709927 4.7343108240967595 2.875932163775936 -5 -1 3
583 0 3 0.3157336436687818 18.578814711745817 9.169259384366184 9.247357285124073 0 0 0
539 60 2 -0.7181481089307424 18.36352928695069 8.486397700020497 10.107273092014891 -3 -3 -2