LAMMPS data file via write_data, version 20 Nov 2019, timestep = 100000

490 atoms
7 atom types
80 bonds
5 bond types
130 angles
6 angle types
120 dihedrals
3 dihedral types

-1.3740615912425636e+01 1.3740615912425636e+01 xlo xhi
-1.3746291903668517e+01 1.3746291903668517e+01 ylo yhi
-2.5680000000000000e+01 2.5680000000000000e+01 zlo zhi

Masses

1 22.99
2 35.45
3 12.011
4 1.008
5 1.008
6 12.011
7 15.9994

Pair Coeffs # lj/cut/coul/long

1 0.0552 2.31
2 0.1004 4.3
3 0.0663 3.5812
4 0.0281 2.3734
5 0 0
6 0.245 2.8114
7 0.1195 3.1

Bond Coeffs # harmonic

1 349.274 1.09
2 399.792 1.43
3 299.844 1.52
4 349.928 1.1
5 442.161 0.972

Angle Coeffs # harmonic

1 47.694 109.5
2 55.127 109.5
3 55.114 111
4 52.477 107.57
5 47.502 108.53
6 54.993 110.3

Dihedral Coeffs # harmonic

1 0.30115 1 3
2 1.415 1 3
3 0 1 1

Atoms # full

9 1 1 1.0000000000000000e+00 -1.2334278983127117e+01 -1.2426330664331680e+01 -2.4212054118205693e+01 0 0 1
10 1 2 -1.0000000000000000e+00 -1.2391223578970767e+01 -9.6596079815208888e+00 -2.4304106250392021e+01 0 0 1
11 1 2 -1.0000000000000000e+00 -9.6305774246180604e+00 -1.2402286978409457e+01 -2.4389739932564112e+01 0 0 1
12 1 1 1.0000000000000000e+00 -9.5889161730232892e+00 -9.6888523218607077e+00 -2.4296790499616002e+01 0 0 1
13 1 2 -1.0000000000000000e+00 -1.2327135413033261e+01 -1.2318207435025675e+01 -2.1412186706848431e+01 0 0 1
14 1 1 1.0000000000000000e+00 -1.2326250314199466e+01 -9.6229406524384533e+00 -2.1531026616858249e+01 0 0 1
15 1 1 1.0000000000000000e+00 -9.5089174617446410e+00 -1.2439260917257359e+01 -2.1423415762693566e+01 0 0 1
16 1 2 -1.0000000000000000e+00 -9.6289943835704594e+00 -9.6176270177168437e+00 -2.1416229811292560e+01 0 0 1
27 1 2 -1.0000000000000000e+00 -9.5496972513153953e+00 -6.9647106855712826e+00 -2.4209904512453335e+01 0 0 1
25 1 1 1.0000000000000000e+00 -1.2292604180594433e+01 -6.8963073623001474e+00 -2.4322345283957496e+01 0 0 1
31 1 1 1.0000000000000000e+00 -9.5674813928705404e+00 -6.9322684901913245e+00 -2.1430794920763301e+01 0 0 1
93 1 2 -1.0000000000000000e+00 -7.0189051004766672e+00 -1.2340698169305936e+01 -2.1462215701310480e+01 0 0 1
90 1 2 -1.0000000000000000e+00 -6.8684974494464681e+00 -9.6910660263471229e+00 -2.4411786394698964e+01 0 0 1
29 1 2 -1.0000000000000000e+00 -1.2354579609700085e+01 -6.7457741948916565e+00 -2.1471029099533730e+01 0 0 1
94 1 1 1.0000000000000000e+00 -6.8501453824877165e+00 -9.6518277425077450e+00 -2.1611452674028850e+01 0 0 1
109 1 2 -1.0000000000000000e+00 -6.9251236772791831e+00 -6.9564251976476505e+00 -2.1489978754725172e+01 0 0 1
89 1 1 1.0000000000000000e+00 -7.0174699533221485e+00 -1.2509289671042902e+01 -2.4357478650842129e+01 0 0 1
91 1 2 -1.0000000000000000e+00 -4.2357981636152360e+00 -1.2393400997226440e+01 -2.4189359856210235e+01 0 0 1
92 1 1 1.0000000000000000e+00 -4.1384103490939967e+00 -9.7042368578142764e+00 -2.4107840844927118e+01 0 0 1
95 1 1 1.0000000000000000e+00 -4.0892429339848579e+00 -1.2389898562850977e+01 -2.1434779982407633e+01 0 0 1
96 1 2 -1.0000000000000000e+00 -4.2291745474473430e+00 -9.6841631102137864e+00 -2.1367967580746015e+01 0 0 1
169 1 1 1.0000000000000000e+00 -1.4863833140434402e+00 -1.2256612709380919e+01 -2.4247083595190094e+01 0 0 1
170 1 2 -1.0000000000000000e+00 -1.3647442535239040e+00 -9.5532620530418164e+00 -2.4212743717902544e+01 0 0 1
173 1 2 -1.0000000000000000e+00 -1.4587400224214857e+00 -1.2363825111745250e+01 -2.1301559249213572e+01 0 0 1
174 1 1 1.0000000000000000e+00 -1.5211287685572863e+00 -9.5060106398213193e+00 -2.1061804233462933e+01 0 0 1
473 10 5 4.1599999999999998e-01 -1.1787961228327237e+00 -1.1066618783658765e+01 -1.9299654031914496e+01 0 -2 0
185 1 1 1.0000000000000000e+00 -1.3328164244343501e+00 -6.8795075649454827e+00 -2.4096687389983760e+01 0 0 1
105 1 1 1.0000000000000000e+00 -6.9468371503248392e+00 -6.8721220849788942e+00 -2.4178134987928132e+01 0 0 1
107 1 2 -1.0000000000000000e+00 -4.1202065385256024e+00 -6.7688328197855121e+00 -2.4232228429338740e+01 0 0 1
111 1 1 1.0000000000000000e+00 -4.2033599769072829e+00 -6.6792179253655828e+00 -2.1475881599547158e+01 0 0 1
171 1 2 -1.0000000000000000e+00 1.3988324510872125e+00 -1.2362310718940302e+01 -2.4252616092493728e+01 0 0 1
172 1 1 1.0000000000000000e+00 1.5983349077518394e+00 -9.6316406478647636e+00 -2.4313053345420506e+01 0 0 1
175 1 1 1.0000000000000000e+00 1.3041773968811956e+00 -1.2482787697913494e+01 -2.1404497427416818e+01 0 0 1
176 1 2 -1.0000000000000000e+00 1.1652976651473850e+00 -9.5945524908749356e+00 -2.1518392848186970e+01 0 0 1
249 1 1 1.0000000000000000e+00 4.0753737688323248e+00 -1.2333262056052146e+01 -2.4201525077178989e+01 0 0 1
250 1 2 -1.0000000000000000e+00 4.2555347366436926e+00 -9.5759325302957379e+00 -2.4134032009514986e+01 0 0 1
253 1 2 -1.0000000000000000e+00 3.8991639084345024e+00 -1.2431932221929880e+01 -2.1348023084950139e+01 0 0 1
254 1 1 1.0000000000000000e+00 4.1750541997239345e+00 -9.5700124291527704e+00 -2.1433466002106645e+01 0 0 1
255 1 1 1.0000000000000000e+00 6.7928815701174692e+00 -1.2243030633848802e+01 -2.1486812420248384e+01 0 0 1
256 1 2 -1.0000000000000000e+00 6.8694082535116507e+00 -9.6767370522884075e+00 -2.1381467285824730e+01 0 0 1
251 1 2 -1.0000000000000000e+00 6.7427308257252498e+00 -1.2377899877242161e+01 -2.4238021248742065e+01 0 0 1
252 1 1 1.0000000000000000e+00 7.0094748756936234e+00 -9.5851140760960583e+00 -2.4154465587038047e+01 0 0 1
267 1 2 -1.0000000000000000e+00 7.0828966156763649e+00 -6.8354548347726940e+00 -2.4114489353085297e+01 0 0 1
329 1 1 1.0000000000000000e+00 9.7860061370989015e+00 -1.2297261112726499e+01 -2.4297022842575650e+01 0 0 1
330 1 2 -1.0000000000000000e+00 9.6989563595068695e+00 -9.7878487670753511e+00 -2.4395092733842393e+01 0 0 1
331 1 2 -1.0000000000000000e+00 1.2482619313765639e+01 -1.2400621125527412e+01 -2.4140136337385385e+01 0 0 1
332 1 1 1.0000000000000000e+00 1.2386180308497188e+01 -9.7361925391954500e+00 -2.4228982731350872e+01 0 0 1
333 1 2 -1.0000000000000000e+00 9.4694278482534671e+00 -1.2382804102466682e+01 -2.1182191445603699e+01 0 0 1
334 1 1 1.0000000000000000e+00 9.6870634680274001e+00 -9.5238335307704212e+00 -2.0876959640991355e+01 0 0 1
335 1 1 1.0000000000000000e+00 1.2294443627872017e+01 -1.2233630421816871e+01 -2.1037746361777479e+01 0 0 1
336 1 2 -1.0000000000000000e+00 1.2273704242341221e+01 -9.5867170350210849e+00 -2.1236652595699255e+01 0 0 1
271 1 1 1.0000000000000000e+00 7.0869243298720193e+00 -6.8682532047083074e+00 -2.1405928804383603e+01 0 0 1
351 1 1 1.0000000000000000e+00 1.2347990628611154e+01 -6.8821840684100861e+00 -2.1328739371205749e+01 0 0 1
349 1 2 -1.0000000000000000e+00 9.6446985784950776e+00 -6.8117158825391613e+00 -2.0994579798042164e+01 0 0 1
345 1 1 1.0000000000000000e+00 9.7936521568547654e+00 -7.0064453151177792e+00 -2.4347281665162821e+01 0 0 1
347 1 2 -1.0000000000000000e+00 1.2400789204092067e+01 -6.9904773193125456e+00 -2.4179853248911279e+01 0 0 1
417 3 4 7.9000000000000001e-02 3.5926127201299423e+00 -5.9861530645482510e+00 -1.6686785863136720e+01 0 0 0
26 1 2 -1.0000000000000000e+00 -1.2352226032195892e+01 -3.9845059468654291e+00 -2.4387254066015011e+01 0 0 1
28 1 1 1.0000000000000000e+00 -9.6673630109205675e+00 -4.4026564092541403e+00 -2.4194297809388761e+01 0 0 1
30 1 1 1.0000000000000000e+00 -1.2347026792975173e+01 -4.0335145659226761e+00 -2.1402613812300661e+01 0 0 1
32 1 2 -1.0000000000000000e+00 -9.7015477236129968e+00 -4.2039351219078167e+00 -2.1589849726206154e+01 0 0 1
41 1 1 1.0000000000000000e+00 -1.2383252650256489e+01 -1.3845775282081032e+00 -2.4264024845453363e+01 0 0 1
43 1 2 -1.0000000000000000e+00 -9.6156367561913836e+00 -1.3565338431663765e+00 -2.4372900468562072e+01 0 0 1
45 1 2 -1.0000000000000000e+00 -1.2390021948232201e+01 -1.3277093266669606e+00 -2.1258229010682054e+01 0 0 1
47 1 1 1.0000000000000000e+00 -9.7128753089836586e+00 -1.5666439699677639e+00 -2.1624556898944995e+01 0 0 1
106 1 2 -1.0000000000000000e+00 -7.0386616317196360e+00 -4.1286678519779336e+00 -2.4247262455920371e+01 0 0 1
121 1 1 1.0000000000000000e+00 -6.7261781617622018e+00 -1.3675051253209745e+00 -2.4360131663893441e+01 0 0 1
110 1 1 1.0000000000000000e+00 -6.9797836163064524e+00 -4.0475486380735788e+00 -2.1571795802199524e+01 0 0 1
125 1 2 -1.0000000000000000e+00 -6.8672136545217350e+00 -1.4125727638764651e+00 -2.1373069314436865e+01 0 0 1
189 1 2 -1.0000000000000000e+00 -1.5413177911804574e+00 -6.8208194091977372e+00 -2.1077445870211061e+01 0 0 1
108 1 1 1.0000000000000000e+00 -4.0636867476984513e+00 -4.0845783406936853e+00 -2.4378819045485706e+01 0 0 1
112 1 2 -1.0000000000000000e+00 -4.1448491144501567e+00 -4.1665423187170845e+00 -2.1303806346337193e+01 0 0 1
123 1 2 -1.0000000000000000e+00 -4.1874144974132630e+00 -1.4715409701226427e+00 -2.4283867075411319e+01 0 0 1
127 1 1 1.0000000000000000e+00 -4.1548819873100129e+00 -1.4589783676590269e+00 -2.1372246745207217e+01 0 0 1
186 1 2 -1.0000000000000000e+00 -1.1949592633915209e+00 -4.1787707931576747e+00 -2.4315134159419625e+01 0 0 1
190 1 1 1.0000000000000000e+00 -1.3649614052645784e+00 -4.1178541909778588e+00 -2.1431722299267186e+01 0 0 1
201 1 1 1.0000000000000000e+00 -1.6204753668171392e+00 -1.5354519026710385e+00 -2.4184131961017332e+01 0 0 1
205 1 2 -1.0000000000000000e+00 -1.5158098902665991e+00 -1.3596167769889842e+00 -2.1469224398390658e+01 0 0 1
191 1 1 1.0000000000000000e+00 1.3755770567005108e+00 -7.0525947233463535e+00 -2.1188071618791490e+01 0 0 1
187 1 2 -1.0000000000000000e+00 1.5219346563702381e+00 -6.9372506508641720e+00 -2.4013540996868183e+01 0 0 1
265 1 1 1.0000000000000000e+00 4.2284385657012997e+00 -6.7764588228164193e+00 -2.4056743300680473e+01 0 0 1
269 1 2 -1.0000000000000000e+00 4.1517176012582233e+00 -6.8408480702514227e+00 -2.1275361872066483e+01 0 0 1
188 1 1 1.0000000000000000e+00 1.5191446247108988e+00 -4.1683532816239968e+00 -2.4251863410413304e+01 0 0 1
192 1 2 -1.0000000000000000e+00 1.4497963609913693e+00 -3.9836157070453133e+00 -2.1476286003497400e+01 0 0 1
203 1 2 -1.0000000000000000e+00 1.3650991465704312e+00 -1.3039561589110171e+00 -2.4262453210854087e+01 0 0 1
207 1 1 1.0000000000000000e+00 1.4132561862345607e+00 -1.3732638636191616e+00 -2.1509831783149131e+01 0 0 1
266 1 2 -1.0000000000000000e+00 4.1356778243320207e+00 -4.0959821158935803e+00 -2.4141270088635967e+01 0 0 1
270 1 1 1.0000000000000000e+00 4.2167424448462114e+00 -4.0581670722399927e+00 -2.1503586412744955e+01 0 0 1
281 1 1 1.0000000000000000e+00 4.2460202904318258e+00 -1.3104018171346485e+00 -2.4193203638496108e+01 0 0 1
285 1 2 -1.0000000000000000e+00 4.3646240217434453e+00 -1.2897753563080609e+00 -2.1514493361767229e+01 0 0 1
287 1 1 1.0000000000000000e+00 7.2084712379664424e+00 -1.3647768048262812e+00 -2.1431887277390544e+01 0 0 1
268 1 1 1.0000000000000000e+00 7.0337573414531214e+00 -4.0914224952083522e+00 -2.4229110980747965e+01 0 0 1
272 1 2 -1.0000000000000000e+00 7.1010093380627772e+00 -4.0924123646608805e+00 -2.1461529795648953e+01 0 0 1
283 1 2 -1.0000000000000000e+00 7.0930112721171206e+00 -1.3404579440647879e+00 -2.4229004163839988e+01 0 0 1
346 1 2 -1.0000000000000000e+00 9.7637348385449556e+00 -4.1857792204305841e+00 -2.4171385113749992e+01 0 0 1
348 1 1 1.0000000000000000e+00 1.2374319891859361e+01 -4.0427863675047373e+00 -2.4310692878280566e+01 0 0 1
350 1 1 1.0000000000000000e+00 9.7525456311052139e+00 -4.0387889061403186e+00 -2.1462891621482395e+01 0 0 1
352 1 2 -1.0000000000000000e+00 1.2436715098193421e+01 -4.2807514546607628e+00 -2.1452158936284668e+01 0 0 1
361 1 1 1.0000000000000000e+00 9.8227749069719792e+00 -1.3407626899033023e+00 -2.4331353266918974e+01 0 0 1
363 1 2 -1.0000000000000000e+00 1.2459776445829462e+01 -1.4174050092698529e+00 -2.4331178680797443e+01 0 0 1
365 1 2 -1.0000000000000000e+00 9.7480697666083316e+00 -1.1895019630642238e+00 -2.1431717751530588e+01 0 0 1
367 1 1 1.0000000000000000e+00 1.2425218336993002e+01 -1.4336443481171379e+00 -2.1419743557754568e+01 0 0 1
474 10 7 -6.8200000000000005e-01 -1.3736570193940700e+00 -1.0131662204760236e+01 -1.8948229886725876e+01 0 -2 0
478 10 3 -2.8499999999999998e-01 -2.3277146303625376e+00 -9.0357336291268080e+00 -1.6987739142240763e+01 0 -2 0
479 10 4 7.9000000000000001e-02 -2.2002892296935741e+00 -8.0991967516805552e+00 -1.7526134390900374e+01 0 -2 0
481 10 4 7.9000000000000001e-02 -3.2432772382249855e+00 -9.0241941115301820e+00 -1.6392216389394680e+01 0 -2 0
475 10 6 3.7200000000000000e-01 -2.4122657427741974e+00 -1.0242097618610524e+01 -1.7850826152034060e+01 0 -2 0
477 10 4 -2.9000000000000001e-02 -3.4496482582222505e+00 -1.0204319612384985e+01 -1.8199485616592042e+01 0 -2 0
476 10 4 -2.9000000000000001e-02 -2.2819052630278662e+00 -1.1254599745949095e+01 -1.7236634895551703e+01 0 -2 0
410 3 5 4.1599999999999998e-01 4.7509562316296616e-01 -7.7158489064691462e+00 -1.8771633932922473e+01 0 0 0
411 3 7 -6.8200000000000005e-01 1.2006981175155538e+00 -7.1153716368672031e+00 -1.8867487456749220e+01 0 0 0
480 10 4 7.9000000000000001e-02 -1.5089847933633944e+00 -9.0577126014447256e+00 -1.6318677479980863e+01 0 -2 0
414 3 4 -2.9000000000000001e-02 1.2601722278045262e+00 -6.2781883107724870e+00 -1.6866477554257980e+01 0 0 0
413 3 4 -2.9000000000000001e-02 2.1449180144822559e+00 -7.9993542018387709e+00 -1.7163443320025742e+01 0 0 0
412 3 6 3.7200000000000000e-01 1.8744528505065290e+00 -6.9836403813343777e+00 -1.7529824825607889e+01 0 0 0
402 2 7 -6.8200000000000005e-01 1.2467595005591136e+01 -1.3603672756421760e+01 -1.9105516998634570e+01 -1 0 0
406 2 3 -2.8499999999999998e-01 1.3673550428843139e+01 -1.2051189750785621e+01 -1.7848206145247662e+01 -1 0 0
407 2 4 7.9000000000000001e-02 1.3099304715501553e+01 -1.1750269272800065e+01 -1.6967205846252579e+01 -1 0 0
408 2 4 7.9000000000000001e-02 1.3333385702268831e+01 -1.1414669049774298e+01 -1.8653601745690896e+01 -1 0 0
409 2 4 7.9000000000000001e-02 -1.2738285751799431e+01 -1.1770698077998249e+01 -1.7639466469099094e+01 0 0 0
415 3 3 -2.8499999999999998e-01 3.2009953755514218e+00 -6.2597045499688333e+00 -1.7638429542577544e+01 0 0 0
403 2 6 3.7200000000000000e-01 1.3564994058418870e+01 -1.3502733377526031e+01 -1.8221054165220323e+01 -1 0 0
416 3 4 7.9000000000000001e-02 3.9172023106298610e+00 -6.8639967597875788e+00 -1.8161140031467312e+01 0 0 0
418 3 4 7.9000000000000001e-02 3.2549429176377807e+00 -5.3308208485998634e+00 -1.8259630824433589e+01 0 0 0
439 6 6 3.7200000000000000e-01 -1.1471014869156070e+01 -1.3190523327284190e+01 1.8176094669373562e+01 1 0 0
438 6 7 -6.8200000000000005e-01 -1.1438319100596381e+01 -1.2026237887265950e+01 1.9061920692840935e+01 1 0 0
463 8 4 7.9000000000000001e-02 -7.9594216796989494e+00 -8.0684431869018791e+00 1.8703045138048410e+01 0 0 0
437 6 5 4.1599999999999998e-01 -1.0490776511112166e+01 -1.1797341198159245e+01 1.9297197209890236e+01 1 0 0
457 8 6 3.7200000000000000e-01 -9.6019137954223979e+00 -9.2923096193373595e+00 1.7856409578242676e+01 0 0 0
461 8 4 7.9000000000000001e-02 -7.6048123939543730e+00 -8.7658148577576771e+00 1.7134595641890840e+01 0 0 0
460 8 3 -2.8499999999999998e-01 -8.0919309961946251e+00 -8.9519517939486022e+00 1.8077913227217032e+01 0 0 0
462 8 4 7.9000000000000001e-02 -7.5209818375649142e+00 -9.7782688556679922e+00 1.8550184470067421e+01 0 0 0
459 8 4 -2.9000000000000001e-02 -9.7054818242865171e+00 -1.0309369557228257e+01 1.7363475023393782e+01 0 0 0
456 8 7 -6.8200000000000005e-01 -1.0167687577257892e+01 -9.4547691867425687e+00 1.9157604611253191e+01 0 0 0
458 8 4 -2.9000000000000001e-02 -1.0108231950169161e+01 -8.5611948079545428e+00 1.7267048050582588e+01 0 0 0
443 6 4 7.9000000000000001e-02 -1.1479835640497203e+01 -1.3388545999208402e+01 1.6008704515283704e+01 1 0 0
455 8 5 4.1599999999999998e-01 -1.1122540267252930e+01 -9.6979005185285345e+00 1.9151805407028583e+01 0 0 0
425 4 4 7.9000000000000001e-02 -1.3337517512129422e+01 -1.0210070921693845e+01 1.6737521413615646e+01 1 0 0
426 4 4 7.9000000000000001e-02 -1.3033942545697530e+01 -9.9917303553330505e+00 1.8392672373703654e+01 1 0 0
357 1 2 -1.0000000000000000e+00 9.5549008220806968e+00 -1.4412102597907470e+00 2.4406945571933399e+01 0 0 0
442 6 3 -2.8499999999999998e-01 -1.1843916528490562e+01 -1.2723194419112406e+01 1.6777535040683688e+01 1 0 0
445 6 4 7.9000000000000001e-02 -1.2885086818028849e+01 -1.2450438910040846e+01 1.6552829198195525e+01 1 0 0
344 1 2 -1.0000000000000000e+00 1.2356971514057264e+01 -4.1301418255756683e+00 2.4279461649974387e+01 0 0 0
444 6 4 7.9000000000000001e-02 -1.1273603592180002e+01 -1.1772828472489225e+01 1.6556278235002267e+01 1 0 0
427 4 4 7.9000000000000001e-02 -1.3546846704825429e+01 -8.6138318010491091e+00 1.7372743927549024e+01 1 0 0
420 4 7 -6.8200000000000005e-01 1.1795924313028170e+01 -9.2328915312421742e+00 1.8969206382876884e+01 0 0 0
424 4 3 -2.8499999999999998e-01 -1.3684598289532136e+01 -9.6715153845271455e+00 1.7590059422478305e+01 1 0 0
421 4 6 3.7200000000000000e-01 1.2283808270408429e+01 -9.9772992811370180e+00 1.7851170324323945e+01 0 0 0
423 4 4 -2.9000000000000001e-02 1.2075365112027502e+01 -1.1046402159275566e+01 1.7984085866603159e+01 0 0 0
422 4 4 -2.9000000000000001e-02 1.1713299257749394e+01 -9.5984627774697167e+00 1.6947205623692646e+01 0 0 0
419 4 5 4.1599999999999998e-01 1.0873256615088717e+01 -9.4278232001814448e+00 1.9165532801141488e+01 0 0 0
431 5 4 -2.9000000000000001e-02 -4.8686743951549847e+00 -5.2191994295269986e+00 1.7550096844321835e+01 0 1 0
432 5 4 -2.9000000000000001e-02 -3.2816158967076330e+00 -5.8589191360092601e+00 1.7378850295635665e+01 0 1 0
435 5 4 7.9000000000000001e-02 -2.4086670416509044e+00 -3.4849785587199289e+00 1.7051899716433027e+01 0 1 0
430 5 6 3.7200000000000000e-01 -3.8207483592685261e+00 -4.9743493736695150e+00 1.7732397145596828e+01 0 1 0
436 5 4 7.9000000000000001e-02 -4.0176243088018495e+00 -2.7959523713677950e+00 1.7183444346134493e+01 0 1 0
433 5 3 -2.8499999999999998e-01 -3.4729964010582179e+00 -3.7126493449384963e+00 1.6908244366081533e+01 0 1 0
434 5 4 7.9000000000000001e-02 -3.7180732533296901e+00 -3.8166789521935431e+00 1.5828163748751393e+01 0 1 0
429 5 7 -6.8200000000000005e-01 -3.5102839798373608e+00 -4.6397625891002487e+00 1.9052974046101831e+01 0 1 0
1 1 1 1.0000000000000000e+00 -1.2402852855710684e+01 -1.2227847774886609e+01 2.1188197596016458e+01 0 0 0
2 1 2 -1.0000000000000000e+00 -1.2408251960254622e+01 -9.5284189269264097e+00 2.1569823493167455e+01 0 0 0
3 1 2 -1.0000000000000000e+00 -9.4476278148485413e+00 -1.2262117149981684e+01 2.1370409565549252e+01 0 0 0
4 1 1 1.0000000000000000e+00 -9.5387317771612388e+00 -9.4310344388652290e+00 2.1347709193504095e+01 0 0 0
5 1 2 -1.0000000000000000e+00 -1.2346530169912601e+01 -1.2403646335075855e+01 2.4194539814320393e+01 0 0 0
6 1 1 1.0000000000000000e+00 -1.2411402158445920e+01 -9.7017706107527388e+00 2.4234961233169756e+01 0 0 0
7 1 1 1.0000000000000000e+00 -9.6038791573504803e+00 -1.2460936724859270e+01 2.4162699197479611e+01 0 0 0
8 1 2 -1.0000000000000000e+00 -9.4603341022386971e+00 -9.6874719894641501e+00 2.4414201863094434e+01 0 0 0
23 1 1 1.0000000000000000e+00 -9.3965736467341650e+00 -6.9015089048866232e+00 2.4290011856294882e+01 0 0 0
86 1 1 1.0000000000000000e+00 -6.8081172727276273e+00 -9.6795764956826602e+00 2.4113694606645616e+01 0 0 0
17 1 1 1.0000000000000000e+00 -1.2261236569799372e+01 -6.7482590739017470e+00 2.1655755097943903e+01 0 0 0
85 1 2 -1.0000000000000000e+00 -6.9985376856706383e+00 -1.2407713970426000e+01 2.4111180344176354e+01 0 0 0
81 1 1 1.0000000000000000e+00 -6.7578850309629495e+00 -1.2247096767741720e+01 2.1281846006298871e+01 0 0 0
82 1 2 -1.0000000000000000e+00 -6.8265094203794296e+00 -9.6005910143136060e+00 2.1439557464495664e+01 0 0 0
83 1 2 -1.0000000000000000e+00 -4.2514216889790806e+00 -1.2304393954599281e+01 2.1401492342947911e+01 0 0 0
84 1 1 1.0000000000000000e+00 -4.0238873163043376e+00 -9.6575125385686196e+00 2.1464524712948652e+01 0 0 0
87 1 1 1.0000000000000000e+00 -4.0377665844200425e+00 -1.2296180229175336e+01 2.4255192917558922e+01 0 0 0
88 1 2 -1.0000000000000000e+00 -4.1459106373686456e+00 -9.6364289036198265e+00 2.4313570659945334e+01 0 0 0
161 1 1 1.0000000000000000e+00 -1.4331515393239620e+00 -1.2375429762578328e+01 2.1280029246195618e+01 0 0 0
162 1 2 -1.0000000000000000e+00 -1.4171758838646653e+00 -9.7338524102854667e+00 2.1558854090577618e+01 0 0 0
165 1 2 -1.0000000000000000e+00 -1.3370532203907768e+00 -1.2331754182798955e+01 2.4350928310722750e+01 0 0 0
166 1 1 1.0000000000000000e+00 -1.4611947344480125e+00 -9.5242029225616243e+00 2.4272451854520838e+01 0 0 0
181 1 2 -1.0000000000000000e+00 -1.2870736964169733e+00 -6.9799422372474762e+00 2.4257799892363572e+01 0 0 0
99 1 2 -1.0000000000000000e+00 -4.0463148959280009e+00 -6.8454020806171822e+00 2.1327912190847719e+01 0 0 0
103 1 1 1.0000000000000000e+00 -4.0699427595217852e+00 -6.8648729971702025e+00 2.4072071513505300e+01 0 0 0
163 1 2 -1.0000000000000000e+00 1.3853761329090233e+00 -1.2333610635652176e+01 2.1404893451409357e+01 0 0 0
164 1 1 1.0000000000000000e+00 1.3781151851548845e+00 -9.5956346392857021e+00 2.1680891831947079e+01 0 0 0
167 1 1 1.0000000000000000e+00 1.4769457415839344e+00 -1.2267235363622602e+01 2.4513895846797368e+01 0 0 0
168 1 2 -1.0000000000000000e+00 1.5317844860118459e+00 -9.5430775331665796e+00 2.4438404610586474e+01 0 0 0
241 1 1 1.0000000000000000e+00 4.3140234562559456e+00 -1.2431857802680920e+01 2.1612833649052327e+01 0 0 0
242 1 2 -1.0000000000000000e+00 4.2411507843562894e+00 -9.5351442927221850e+00 2.1665677348772711e+01 0 0 0
245 1 2 -1.0000000000000000e+00 4.0571573307609121e+00 -1.2384348477060980e+01 2.4325443729367848e+01 0 0 0
246 1 1 1.0000000000000000e+00 4.2305769686037138e+00 -9.5197545931719763e+00 2.4356775447562505e+01 0 0 0
243 1 2 -1.0000000000000000e+00 7.0975638012586479e+00 -1.2433043066960282e+01 2.1718394887032019e+01 0 0 0
244 1 1 1.0000000000000000e+00 6.9627929927524654e+00 -9.6598450265301796e+00 2.1619104448477650e+01 0 0 0
179 1 2 -1.0000000000000000e+00 1.3544773985793572e+00 -7.0474205920077289e+00 2.1214581180045180e+01 0 0 0
259 1 2 -1.0000000000000000e+00 6.8279568630167518e+00 -6.9157997554978801e+00 2.1261735165136564e+01 0 0 0
247 1 1 1.0000000000000000e+00 7.0707838014831097e+00 -1.2343342004289575e+01 2.4521699750625956e+01 0 0 0
257 1 1 1.0000000000000000e+00 4.2197904630842160e+00 -6.7956781428744932e+00 2.1439097794717505e+01 0 0 0
261 1 2 -1.0000000000000000e+00 4.0726711978599610e+00 -6.8231726336268217e+00 2.4317377768933667e+01 0 0 0
248 1 2 -1.0000000000000000e+00 6.8907275544970474e+00 -9.6616630409305486e+00 2.4351959378375717e+01 0 0 0
341 1 2 -1.0000000000000000e+00 9.7326277881143568e+00 -6.8661139311914843e+00 2.4376236915597246e+01 0 0 0
321 1 1 1.0000000000000000e+00 9.7299981397885880e+00 -1.2384877488106998e+01 2.1660121137201948e+01 0 0 0
322 1 2 -1.0000000000000000e+00 9.5611445097979306e+00 -9.7183635982181364e+00 2.1400232582529895e+01 0 0 0
323 1 2 -1.0000000000000000e+00 1.2344964279237114e+01 -1.2237500633024583e+01 2.1308987257820263e+01 0 0 0
324 1 1 1.0000000000000000e+00 1.2220007542529125e+01 -9.5576697457150530e+00 2.1273014757563288e+01 0 0 0
325 1 2 -1.0000000000000000e+00 9.7608350047697030e+00 -1.2398918432380324e+01 2.4441736122357511e+01 0 0 0
326 1 1 1.0000000000000000e+00 9.6951742300405961e+00 -9.6807603672121836e+00 2.4287839831732995e+01 0 0 0
327 1 1 1.0000000000000000e+00 1.2431740815893843e+01 -1.2329121860306760e+01 2.4111085540505243e+01 0 0 0
328 1 2 -1.0000000000000000e+00 1.2369447593510404e+01 -9.7417820893985461e+00 2.4259589395626591e+01 0 0 0
263 1 1 1.0000000000000000e+00 6.8288869800262759e+00 -6.9693428236809343e+00 2.4621647910146194e+01 0 0 0
19 1 2 -1.0000000000000000e+00 -9.4589665075593885e+00 -6.7155659317150542e+00 2.1439713815235201e+01 0 0 0
21 1 2 -1.0000000000000000e+00 -1.2242005685232774e+01 -6.7507534568462466e+00 2.4340725543545382e+01 0 0 0
101 1 2 -1.0000000000000000e+00 -6.6434496158129948e+00 -6.9454291107220278e+00 2.4198023805621787e+01 0 0 0
18 1 2 -1.0000000000000000e+00 -1.2406504355047177e+01 -4.0767587011604487e+00 2.1268658783398891e+01 0 0 0
20 1 1 1.0000000000000000e+00 -9.7178172327538199e+00 -4.0877987866191354e+00 2.1419679659573795e+01 0 0 0
22 1 1 1.0000000000000000e+00 -1.2199676509322231e+01 -4.0342626176892971e+00 2.4263842964756073e+01 0 0 0
24 1 2 -1.0000000000000000e+00 -9.5133025979148353e+00 -4.2068913499878899e+00 2.4273696887600757e+01 0 0 0
33 1 1 1.0000000000000000e+00 -1.2348914952726176e+01 -1.2984158204714831e+00 2.1645955316545070e+01 0 0 0
35 1 2 -1.0000000000000000e+00 -9.6132058449420548e+00 -1.4194065733733687e+00 2.1483579967812631e+01 0 0 0
37 1 2 -1.0000000000000000e+00 -1.2440871294499340e+01 -1.2992275607356429e+00 2.4460690734807180e+01 0 0 0
39 1 1 1.0000000000000000e+00 -9.3686058929898959e+00 -1.5057603805353157e+00 2.4318908091986927e+01 0 0 0
98 1 2 -1.0000000000000000e+00 -6.6931886888017260e+00 -3.9175851354323914e+00 2.1388812547464219e+01 0 0 0
117 1 2 -1.0000000000000000e+00 -6.7817971429352095e+00 -1.5233032101305284e+00 2.4320460656942956e+01 0 0 0
113 1 1 1.0000000000000000e+00 -6.7942685062575805e+00 -1.2639267401064345e+00 2.1556308815808109e+01 0 0 0
102 1 1 1.0000000000000000e+00 -6.8124033332955820e+00 -4.2086759274010088e+00 2.4162544573153411e+01 0 0 0
428 5 5 4.1599999999999998e-01 -3.4462115803538680e+00 -5.5595276678658898e+00 1.9566888942351575e+01 0 1 0
177 1 1 1.0000000000000000e+00 -1.3687042762901793e+00 -6.8564445509302185e+00 2.1449067423715498e+01 0 0 0
97 1 1 1.0000000000000000e+00 -6.7401161132624097e+00 -6.9789151817996213e+00 2.1313433467346165e+01 0 0 0
100 1 1 1.0000000000000000e+00 -3.9779429692771178e+00 -3.8541111584718504e+00 2.1125892631974864e+01 0 0 0
104 1 2 -1.0000000000000000e+00 -4.0253725893911341e+00 -4.1861168545224672e+00 2.4253080078589335e+01 0 0 0
115 1 2 -1.0000000000000000e+00 -4.1188850720494070e+00 -1.2459974044263742e+00 2.1497321068667553e+01 0 0 0
119 1 1 1.0000000000000000e+00 -4.1345384538101460e+00 -1.5276758641478949e+00 2.4090817844991058e+01 0 0 0
178 1 2 -1.0000000000000000e+00 -1.2834018258069122e+00 -4.1522569249068564e+00 2.1596353122626518e+01 0 0 0
182 1 1 1.0000000000000000e+00 -1.4279890786202660e+00 -4.2701066664623948e+00 2.4222541207441523e+01 0 0 0
193 1 1 1.0000000000000000e+00 -1.2331873083632061e+00 -1.3299730179062568e+00 2.1569616634263504e+01 0 0 0
197 1 2 -1.0000000000000000e+00 -1.3765280061861986e+00 -1.4574667368469605e+00 2.4476468708449573e+01 0 0 0
183 1 1 1.0000000000000000e+00 1.3521201499295845e+00 -6.8770469006218971e+00 2.4372254892233741e+01 0 0 0
180 1 1 1.0000000000000000e+00 1.3708108807381123e+00 -4.1184782817655847e+00 2.1457543400399366e+01 0 0 0
184 1 2 -1.0000000000000000e+00 1.4814681145865674e+00 -4.2230696012243882e+00 2.4241443418410803e+01 0 0 0
195 1 2 -1.0000000000000000e+00 1.3930044581015188e+00 -1.4761090838718580e+00 2.1359600800218374e+01 0 0 0
199 1 1 1.0000000000000000e+00 1.3322789549331358e+00 -1.3128871605940766e+00 2.4413855381006151e+01 0 0 0
258 1 2 -1.0000000000000000e+00 4.0928817501457182e+00 -4.1678934383306103e+00 2.1489601704635540e+01 0 0 0
262 1 1 1.0000000000000000e+00 3.9972102775330356e+00 -4.1274998970024441e+00 2.4289544056648637e+01 0 0 0
273 1 1 1.0000000000000000e+00 4.3622193538823311e+00 -1.4150121143487482e+00 2.1658352450229600e+01 0 0 0
277 1 2 -1.0000000000000000e+00 4.1609603130374815e+00 -1.3022678523089919e+00 2.4344789989727460e+01 0 0 0
260 1 1 1.0000000000000000e+00 6.8318737343218601e+00 -4.0982729741566910e+00 2.1690313557547881e+01 0 0 0
353 1 1 1.0000000000000000e+00 9.6894671005610320e+00 -1.3748776953060489e+00 2.1300443029700553e+01 0 0 0
343 1 1 1.0000000000000000e+00 1.2497485242689091e+01 -6.9583066871513832e+00 2.4415911426603650e+01 0 0 0
337 1 1 1.0000000000000000e+00 9.4305252915374744e+00 -7.1510751018971028e+00 2.1615053577348952e+01 0 0 0
339 1 2 -1.0000000000000000e+00 1.2386436532916090e+01 -6.8910591598943691e+00 2.1627053170329880e+01 0 0 0
279 1 1 1.0000000000000000e+00 6.8345600954841679e+00 -1.2937383779554796e+00 2.4280789464708143e+01 0 0 0
264 1 2 -1.0000000000000000e+00 6.7256006200058529e+00 -4.0928910632500930e+00 2.4344347161993568e+01 0 0 0
359 1 1 1.0000000000000000e+00 1.2321033336159825e+01 -1.4627446850463173e+00 2.4253274179266334e+01 0 0 0
355 1 2 -1.0000000000000000e+00 1.2298612787350148e+01 -1.3668280809497215e+00 2.1478860559954903e+01 0 0 0
275 1 2 -1.0000000000000000e+00 6.9453273896639942e+00 -1.3899233706947598e+00 2.1278805637164034e+01 0 0 0
340 1 1 1.0000000000000000e+00 1.2404290870917396e+01 -4.1612131275014743e+00 2.1650829811754726e+01 0 0 0
338 1 2 -1.0000000000000000e+00 9.5237469084274409e+00 -4.1338671054803182e+00 2.1614935684112048e+01 0 0 0
342 1 1 1.0000000000000000e+00 9.6749082303095868e+00 -4.1488944979912343e+00 2.4442345711699957e+01 0 0 0
441 6 4 -2.9000000000000001e-02 -1.0498416237852290e+01 -1.3701652568358563e+01 1.8255848554030678e+01 1 0 0
42 1 2 -1.0000000000000000e+00 -1.2354026900516770e+01 1.2866528077216195e+00 -2.4203857668018184e+01 0 0 1
44 1 1 1.0000000000000000e+00 -9.6641929610762709e+00 1.3364001221186399e+00 -2.4105034388975419e+01 0 0 1
46 1 1 1.0000000000000000e+00 -1.2628158169367577e+01 1.4029983713409528e+00 -2.1378314621858600e+01 0 0 1
48 1 2 -1.0000000000000000e+00 -9.5719616516422619e+00 1.2703445188989235e+00 -2.1457338517018474e+01 0 0 1
57 1 1 1.0000000000000000e+00 -1.2235509685842054e+01 4.2095326172561407e+00 -2.4228962073679014e+01 0 0 1
59 1 2 -1.0000000000000000e+00 -9.4837163631919594e+00 4.0000637523120872e+00 -2.4304678613340741e+01 0 0 1
61 1 2 -1.0000000000000000e+00 -1.2476858894805062e+01 4.1014696625616871e+00 -2.1554979475539163e+01 0 0 1
63 1 1 1.0000000000000000e+00 -9.6548487876368831e+00 3.7922993143945511e+00 -2.1669005324485227e+01 0 0 1
122 1 2 -1.0000000000000000e+00 -6.8687422988210383e+00 1.2460777846011410e+00 -2.4362428004713685e+01 0 0 1
126 1 1 1.0000000000000000e+00 -6.7909628404348599e+00 1.2662714159777675e+00 -2.1544690628542654e+01 0 0 1