ITEM: TIMESTEP
0
ITEM: NUMBER OF ATOMS
490
ITEM: BOX BOUNDS pp pp pp
-1.3740615912425636e+01 1.3740615912425636e+01
-1.3746291903668517e+01 1.3746291903668517e+01
-2.5680000000000000e+01 2.5680000000000000e+01
ITEM: ATOMS id type xs ys zs
9 1 0.0511745 0.0480115 0.0285815
10 2 0.0491023 0.148647 0.0267892
11 2 0.149558 0.0488861 0.0251219
12 1 0.151074 0.147583 0.0269316
13 2 0.0514344 0.0519444 0.0830961
14 1 0.0514666 0.14998 0.0807822
15 1 0.153985 0.0475412 0.0828774
16 2 0.149616 0.150174 0.0830173
27 2 0.152501 0.246669 0.0286234
25 1 0.0526909 0.249158 0.0264341
31 1 0.151854 0.24785 0.0827337
93 2 0.244593 0.0511263 0.082122
109 2 0.248005 0.246971 0.0815814
89 1 0.244645 0.044994 0.02575
90 2 0.250066 0.147503 0.0246926
94 1 0.250734 0.14893 0.0792163
91 2 0.345866 0.0492093 0.0290234
92 1 0.34941 0.147023 0.0306106
95 1 0.351199 0.0493367 0.0826562
96 2 0.346107 0.147754 0.083957
169 1 0.445913 0.0541848 0.0278995
170 2 0.450339 0.152515 0.0285681
173 2 0.446919 0.0502851 0.08525
174 1 0.444648 0.154234 0.0899181
473 5 0.457105 0.0974689 0.124228
185 1 0.451501 0.249769 0.0308277
171 2 0.550901 0.0503402 0.0277917
172 1 0.558161 0.149664 0.026615
175 1 0.547457 0.045958 0.0832458
176 2 0.542403 0.151013 0.0810282
249 1 0.648297 0.0513968 0.0287865
250 2 0.654852 0.15169 0.0301006
253 2 0.641885 0.0478078 0.0843453
254 1 0.651924 0.151906 0.0826817
255 1 0.747183 0.0546788 0.0816431
256 2 0.749967 0.148024 0.0836942
251 2 0.745358 0.0497731 0.0280759
191 1 0.550055 0.243473 0.0874597
187 2 0.555381 0.247668 0.0324466
252 1 0.755064 0.151356 0.0297028
329 1 0.856098 0.0527062 0.0269271
330 2 0.85293 0.143982 0.0250177
331 2 0.954223 0.0489467 0.0299818
332 1 0.950714 0.145861 0.0282519
333 2 0.844578 0.0495947 0.0875742
334 1 0.852497 0.153585 0.0935171
335 1 0.947376 0.0550207 0.0903866
336 2 0.946621 0.151298 0.0865138
351 1 0.949324 0.249671 0.0847208
345 1 0.856376 0.245151 0.0259486
347 2 0.951246 0.245732 0.0292085
29 2 0.0504357 0.254633 0.0819504
105 1 0.247215 0.250037 0.0292419
26 2 0.0505214 0.35507 0.0251703
28 1 0.148219 0.33986 0.0289272
30 1 0.0507106 0.353287 0.0832824
32 2 0.146976 0.347088 0.0796369
41 1 0.0493924 0.449638 0.0275696
43 2 0.150102 0.450658 0.0254498
45 2 0.049146 0.451707 0.0860937
47 1 0.146563 0.443016 0.0789611
106 2 0.243874 0.349826 0.027896
110 1 0.246016 0.352777 0.0799884
107 2 0.350072 0.253794 0.0281887
111 1 0.347046 0.257054 0.0818559
121 1 0.255245 0.450259 0.0256984
125 2 0.250113 0.44862 0.0838577
189 2 0.443914 0.251903 0.0896136
108 1 0.352129 0.35143 0.0253345
112 2 0.349175 0.348448 0.0852063
123 2 0.347626 0.446475 0.0271833
127 1 0.34881 0.446932 0.0838737
186 2 0.456517 0.348004 0.0265745
190 1 0.450331 0.350219 0.0827157
201 1 0.441033 0.44415 0.0291252
205 2 0.444842 0.450546 0.0819855
265 1 0.653866 0.253517 0.0316055
269 2 0.651075 0.251175 0.0857601
188 1 0.555279 0.348383 0.0278064
192 2 0.552756 0.355102 0.081848
203 2 0.549674 0.452571 0.0276002
207 1 0.551426 0.45005 0.0811949
266 2 0.650491 0.351015 0.0299597
270 1 0.653441 0.35239 0.0813165
281 1 0.654506 0.452336 0.0289485
285 2 0.658822 0.453086 0.0811041
267 2 0.757736 0.251371 0.0304811
271 1 0.757882 0.250178 0.0832179
349 2 0.850956 0.252234 0.091227
287 1 0.762305 0.450358 0.0827125
268 1 0.755948 0.351181 0.0282494
272 2 0.758395 0.351145 0.0821353
283 2 0.758104 0.451243 0.0282515
346 2 0.855287 0.347749 0.0293733
348 1 0.950283 0.35295 0.026661
350 1 0.85488 0.353095 0.0821088
352 2 0.952553 0.344294 0.0823178
361 1 0.857436 0.451232 0.0262587
363 2 0.953392 0.448444 0.0262621
365 2 0.854717 0.456734 0.0827158
367 1 0.952135 0.447853 0.0829489
42 2 0.0504559 0.5468 0.0287411
44 1 0.148335 0.548609 0.0306652
46 1 0.0404806 0.551032 0.0837556
48 2 0.151691 0.546207 0.0822169
57 1 0.0547685 0.653115 0.0282523
59 2 0.154902 0.645496 0.0267781
61 2 0.0459862 0.649185 0.0803158
63 1 0.148675 0.637939 0.0780957
62 1 0.0505207 0.744512 0.0826644
64 2 0.148526 0.743826 0.082176
60 1 0.155565 0.74772 0.0268147
58 2 0.056897 0.748004 0.025696
142 1 0.249813 0.747445 0.0784948
122 2 0.250057 0.545324 0.0256537
126 1 0.252887 0.546059 0.0805161
137 1 0.2508 0.649818 0.0243559
141 2 0.252024 0.641078 0.0834881
124 1 0.347046 0.545438 0.0228308
128 2 0.350296 0.545331 0.0787126
139 2 0.346862 0.65738 0.0287
143 1 0.346768 0.646357 0.0817836
202 2 0.449332 0.550963 0.0264951
206 1 0.444952 0.547251 0.0802467
217 1 0.439413 0.643565 0.0293115
221 2 0.44308 0.644035 0.0798322
222 1 0.447922 0.749797 0.0839933
204 1 0.545389 0.550925 0.0276067
208 2 0.549036 0.550755 0.0812086
219 2 0.546472 0.6509 0.0262468
223 1 0.553093 0.650218 0.0827175
282 2 0.650808 0.548885 0.0278999
286 1 0.648657 0.549852 0.0829429
297 1 0.654434 0.650492 0.0254074
301 2 0.648494 0.652655 0.084045
303 1 0.749301 0.653551 0.0754951
284 1 0.748783 0.54736 0.0278811
288 2 0.749042 0.5498 0.0820234
302 1 0.655522 0.749869 0.0838902
298 2 0.649556 0.744319 0.0285594
220 1 0.555842 0.74883 0.0278396
299 2 0.754079 0.652502 0.0226884
362 2 0.851316 0.553984 0.0263149
364 1 0.956038 0.551813 0.0273721
366 1 0.84884 0.553492 0.0795799
368 2 0.945446 0.550907 0.0809324
377 1 0.852226 0.650049 0.0244529
379 2 0.948719 0.65154 0.0244363
381 2 0.848428 0.650254 0.0788938
383 1 0.947198 0.649141 0.0810605
300 1 0.754012 0.746332 0.0253209
384 2 0.943394 0.748578 0.0860637
380 1 0.951063 0.74801 0.0270434
378 2 0.854862 0.746626 0.0272309
73 1 0.0549905 0.851462 0.0290084
74 2 0.0524625 0.950104 0.0252879
75 2 0.150159 0.849831 0.0263899
76 1 0.150887 0.953899 0.0269704
77 2 0.0462085 0.845156 0.0814834
78 1 0.0500044 0.9542 0.0775601
79 1 0.147485 0.844863 0.0814064
80 2 0.146198 0.9478 0.0813034
157 2 0.242582 0.850666 0.0815557
158 1 0.245878 0.948177 0.0807102
154 2 0.244909 0.950279 0.0284643
144 2 0.346727 0.75149 0.0852575
218 2 0.454796 0.756521 0.0287669
140 1 0.354762 0.751736 0.0274501
153 1 0.251201 0.852795 0.0300834
138 2 0.251527 0.753846 0.0269567
155 2 0.347417 0.853813 0.0289625
156 1 0.342116 0.953055 0.0251448
159 1 0.352986 0.859352 0.0796772
160 2 0.342083 0.954759 0.0846785
233 1 0.453137 0.848861 0.0293358
234 2 0.445749 0.948711 0.0282142
237 2 0.448462 0.857414 0.0864486
238 1 0.450216 0.953782 0.0839038
224 2 0.539867 0.750238 0.084446
235 2 0.550261 0.848026 0.0253391
236 1 0.543144 0.946171 0.0270235
239 1 0.544306 0.842666 0.084965
240 2 0.545932 0.94761 0.0848603
313 1 0.646578 0.850897 0.0227108
314 2 0.649032 0.945979 0.0234334
317 2 0.642094 0.85039 0.0874785
318 1 0.64738 0.950311 0.0823467
319 1 0.743054 0.852515 0.0828016
320 2 0.742753 0.95469 0.0808628
316 1 0.747884 0.95002 0.0264713
315 2 0.750002 0.851425 0.0269259
304 2 0.750652 0.751602 0.0800853
382 1 0.848532 0.756249 0.0851085
393 1 0.851517 0.845296 0.0276988
394 2 0.844366 0.955862 0.0274595
395 2 0.954314 0.849593 0.0265815
396 1 0.951004 0.944303 0.0250912
397 2 0.844139 0.857585 0.0814126
398 1 0.845542 0.954905 0.0805404
399 1 0.945511 0.853808 0.0822733
400 2 0.948163 0.952278 0.0778213
401 5 0.956358 0.974836 0.115761
409 4 0.0364733 0.0718592 0.156552
474 7 0.450015 0.131477 0.13107
478 3 0.415298 0.171339 0.169242
479 4 0.419935 0.205404 0.158759
481 4 0.381982 0.171759 0.180837
475 6 0.412221 0.12746 0.152437
477 4 0.374473 0.128834 0.145649
476 4 0.416965 0.0906314 0.164396
480 4 0.44509 0.17054 0.182269
410 5 0.517288 0.219348 0.134509
411 7 0.543692 0.241189 0.132642
413 4 0.57805 0.209036 0.165821
412 6 0.568208 0.245981 0.158687
402 7 0.953677 0.00518755 0.128008
406 3 0.99756 0.0616567 0.152488
407 4 0.976664 0.0726022 0.169642
408 4 0.985182 0.0848092 0.136807
403 6 0.993609 0.00885906 0.145229
417 4 0.63073 0.282263 0.175102
414 4 0.545856 0.271641 0.171603
415 3 0.616479 0.272313 0.156573
416 4 0.642541 0.250333 0.146395
418 4 0.618442 0.3061 0.144478
490 4 0.749865 0.748536 0.139562
404 4 0.0240543 0.997687 0.133679
488 4 0.693488 0.771449 0.126731
483 7 0.74733 0.84643 0.1292
484 6 0.73233 0.821234 0.152343
485 4 0.699398 0.838968 0.160516
489 4 0.696035 0.752414 0.159754
487 3 0.717222 0.76934 0.143874
482 5 0.775559 0.867039 0.13399
486 4 0.76074 0.818669 0.166991
405 4 0.99342 0.985216 0.162227
439 6 0.0825873 0.0202152 0.853896
438 7 0.0837771 0.0625643 0.871143
463 4 0.210369 0.206523 0.864156
457 6 0.150601 0.162007 0.847672
461 4 0.223273 0.181157 0.833618
460 3 0.205547 0.174387 0.851984
462 4 0.226323 0.144331 0.86118
459 4 0.146832 0.125013 0.838074
456 7 0.130013 0.156097 0.873006
458 4 0.132177 0.1886 0.836196
443 4 0.0822663 0.0130125 0.811696
455 5 0.0952678 0.147254 0.872893
425 4 0.0146681 0.128625 0.825886
426 4 0.0257148 0.136566 0.858113
442 3 0.069018 0.0372136 0.826665
445 4 0.0311314 0.0471346 0.82229
444 4 0.0897708 0.0717817 0.822357
427 4 0.00705097 0.186685 0.838254
424 3 0.0020384 0.148214 0.842486
441 4 0.117979 0.00162369 0.855449
420 7 0.929236 0.164168 0.869338
421 6 0.946989 0.137091 0.84757
423 4 0.939404 0.0982043 0.850157
422 4 0.926229 0.150871 0.829969
419 5 0.895661 0.157078 0.873161
431 4 0.322836 0.31016 0.841707
432 4 0.380587 0.286891 0.838373
435 4 0.412352 0.373239 0.832007
430 6 0.360969 0.319066 0.845257
436 4 0.353805 0.398302 0.834569
433 3 0.373623 0.364958 0.82921
434 4 0.364705 0.361174 0.808181
429 7 0.372266 0.331236 0.870969
468 4 0.720143 0.710634 0.848495
466 6 0.739869 0.742732 0.845666
470 4 0.806088 0.698387 0.847216
472 4 0.784918 0.711942 0.81586
469 3 0.789449 0.729203 0.835198
440 4 0.0531932 0.994858 0.86044
465 7 0.740709 0.76823 0.870132
449 4 0.588709 0.819867 0.853325
454 4 0.621357 0.907778 0.848412
448 6 0.629135 0.825788 0.851406
452 4 0.623152 0.876543 0.818007
453 4 0.676872 0.880998 0.838376
451 3 0.638207 0.876617 0.838279
450 4 0.642731 0.797727 0.838553
464 5 0.718793 0.794135 0.866903
467 4 0.721217 0.764895 0.83146
471 4 0.812633 0.759439 0.835428
437 5 0.118257 0.0708901 0.875724
1 1 0.0486792 0.055231 0.912543
2 2 0.0484827 0.153419 0.919973
3 2 0.156215 0.0539845 0.916091
4 1 0.1529 0.156961 0.915649
5 2 0.0507286 0.0488366 0.971077
6 1 0.0483681 0.147113 0.971865
7 1 0.15053 0.0467528 0.970458
8 2 0.155753 0.147633 0.975354
23 1 0.158073 0.248968 0.972936
85 2 0.245334 0.0486887 0.969454
86 1 0.252263 0.14792 0.969503
81 1 0.254091 0.0545309 0.914366
82 2 0.251594 0.150793 0.917437
83 2 0.345297 0.0524468 0.916696
84 1 0.353577 0.148723 0.917923
87 1 0.353072 0.0527456 0.972258
88 2 0.349137 0.14949 0.973395
161 1 0.44785 0.049863 0.914331
162 2 0.448431 0.145946 0.91976
165 2 0.451347 0.0514516 0.974122
166 1 0.446829 0.153572 0.972594
181 2 0.453165 0.246115 0.972309
101 2 0.258255 0.247371 0.971145
97 1 0.254737 0.246153 0.914981
163 2 0.550412 0.0513841 0.916762
164 1 0.550148 0.150974 0.922136
167 1 0.553744 0.0537984 0.977295
168 2 0.555739 0.152885 0.975826
241 1 0.656981 0.0478105 0.920811
242 2 0.654329 0.153174 0.92184
245 2 0.647634 0.0495386 0.973626
246 1 0.653944 0.153734 0.974236
179 2 0.549287 0.243661 0.913056
259 2 0.748459 0.248449 0.913975
263 1 0.748493 0.246501 0.979393
183 1 0.549202 0.249858 0.974538
243 2 0.758269 0.0477674 0.922866
244 1 0.753365 0.148638 0.920933
247 1 0.757295 0.0510301 0.977447
248 2 0.750743 0.148572 0.974143
321 1 0.85406 0.0495193 0.921731
322 2 0.847915 0.14651 0.916671
323 2 0.949214 0.0548799 0.914895
324 1 0.944667 0.152355 0.914194
325 2 0.855182 0.0490086 0.975891
326 1 0.852793 0.147877 0.972894
327 1 0.952372 0.0515474 0.969453
328 2 0.950105 0.145658 0.972344
343 1 0.954764 0.246902 0.975388
337 1 0.843162 0.239891 0.920854
339 2 0.950723 0.249348 0.921087
17 1 0.0538324 0.254543 0.921646
19 2 0.155803 0.255732 0.91744
21 2 0.0545321 0.254452 0.973924
18 2 0.0485463 0.351714 0.914109
20 1 0.146383 0.351313 0.91705
22 1 0.0560724 0.35326 0.972427
24 2 0.153825 0.346981 0.972619
33 1 0.0506419 0.452772 0.921456
35 2 0.15019 0.448371 0.918294
37 2 0.0472957 0.452743 0.97626
39 1 0.159091 0.44523 0.973499
99 2 0.352761 0.251009 0.915263
103 1 0.351901 0.250301 0.968693
98 2 0.256445 0.357504 0.916449
117 2 0.253221 0.444592 0.973529
113 1 0.252767 0.454027 0.91971
102 1 0.252107 0.346916 0.970455
428 5 0.374598 0.297781 0.880975
177 1 0.450195 0.250607 0.917622
100 1 0.355249 0.359813 0.91133
104 2 0.353523 0.347737 0.972217
115 2 0.35012 0.454679 0.918562
119 1 0.34955 0.444433 0.969058
178 2 0.453299 0.348968 0.92049
182 1 0.448038 0.344682 0.971623
193 1 0.455126 0.451624 0.919969
197 2 0.44991 0.446987 0.976567
257 1 0.653552 0.252818 0.917428
261 2 0.648198 0.251818 0.973469
180 1 0.549882 0.350197 0.917787
184 2 0.553908 0.346392 0.971991
195 2 0.550689 0.446309 0.91588
199 1 0.54848 0.452246 0.975348
258 2 0.648934 0.348399 0.918411
262 1 0.645452 0.349869 0.972927
273 1 0.658734 0.448531 0.921697
277 2 0.651411 0.452632 0.974003
260 1 0.748601 0.350932 0.922319
279 1 0.748699 0.452942 0.972757
264 2 0.744734 0.351127 0.973994
357 2 0.847688 0.447578 0.975213
344 2 0.949651 0.349773 0.972731
341 2 0.854155 0.250256 0.974615
353 1 0.852585 0.449991 0.914728
359 1 0.948344 0.446795 0.972221
355 2 0.947528 0.450284 0.918202
275 2 0.75273 0.449444 0.914307
340 1 0.951373 0.348642 0.92155
338 2 0.846555 0.349637 0.920852
342 1 0.852055 0.34909 0.975902
34 2 0.0541892 0.547407 0.915599
36 1 0.144919 0.552141 0.911992
38 1 0.0514009 0.545873 0.976555
40 2 0.148965 0.543695 0.971983
49 1 0.0474822 0.645489 0.918445
51 2 0.145982 0.647872 0.915082
53 2 0.0523352 0.646008 0.974311
55 1 0.157049 0.649751 0.97228
52 1 0.148503 0.747694 0.917027
129 1 0.245726 0.656411 0.920347
114 2 0.247277 0.551092 0.918728
133 2 0.249196 0.648126 0.973195
118 1 0.242248 0.545892 0.970867
50 2 0.0484385 0.748679 0.914447
54 1 0.0531599 0.748023 0.968749
130 2 0.246614 0.749596 0.915048
116 1 0.345256 0.550675 0.918432
120 2 0.351293 0.551717 0.971402
131 2 0.340622 0.652479 0.917374
135 1 0.351794 0.648841 0.968745
194 2 0.449834 0.548266 0.919477
198 1 0.44923 0.548416 0.970651
209 1 0.447887 0.646377 0.913673
213 2 0.448184 0.656765 0.970172
132 1 0.344466 0.749236 0.917167
196 1 0.552051 0.545908 0.917884
200 2 0.548657 0.549234 0.971607
211 2 0.54651 0.649132 0.914403
215 1 0.54577 0.648413 0.970842
274 2 0.650508 0.545176 0.922092
278 1 0.645399 0.549905 0.973145
289 1 0.648489 0.653431 0.916872
293 2 0.648417 0.649343 0.974951
212 1 0.544862 0.749479 0.918812
290 2 0.650095 0.743979 0.912934
291 2 0.744814 0.643583 0.913876
276 1 0.749838 0.547205 0.916424
295 1 0.748784 0.650409 0.967671
216 2 0.553051 0.749213 0.97213
280 2 0.756071 0.549768 0.972677
354 2 0.850501 0.551395 0.919303
356 1 0.949202 0.549267 0.918142
358 1 0.855668 0.549068 0.974515
360 2 0.948298 0.554484 0.974106
369 1 0.850812 0.647247 0.917625
371 2 0.953064 0.650111 0.916389
373 2 0.847625 0.656518 0.969551
375 1 0.949908 0.649276 0.971273
374 1 0.849256 0.748275 0.970787
56 2 0.152634 0.751196 0.968364
134 1 0.248957 0.752883 0.973173
65 1 0.0510683 0.847266 0.916137
66 2 0.0570908 0.954269 0.913696
67 2 0.148973 0.848587 0.919207
68 1 0.149595 0.947077 0.917904
69 2 0.0473935 0.852235 0.971922
70 1 0.0495769 0.946648 0.970664
71 1 0.151553 0.849491 0.972203
72 2 0.146421 0.948275 0.973373
149 2 0.244796 0.85443 0.973126
150 1 0.243617 0.952683 0.970389
145 1 0.245597 0.851745 0.919593
136 2 0.343869 0.752597 0.971551
146 2 0.25219 0.95291 0.915366
210 2 0.450774 0.750787 0.909022
214 1 0.446908 0.757084 0.971314
147 2 0.344714 0.848962 0.91992
148 1 0.347907 0.954662 0.91707
151 1 0.350912 0.855939 0.974617
152 2 0.349753 0.955794 0.972117
225 1 0.446723 0.850828 0.915117
226 2 0.444852 0.951435 0.916587
229 2 0.447309 0.852174 0.970793
230 1 0.450136 0.948106 0.969281
294 1 0.648809 0.751457 0.973506
296 2 0.748596 0.750826 0.967798
447 7 0.65634 0.826 0.875207
446 5 0.652336 0.793091 0.884125
227 2 0.544065 0.852616 0.915843
228 1 0.550746 0.951913 0.916392
231 1 0.547169 0.851367 0.970476
232 2 0.551914 0.948067 0.968969
305 1 0.645668 0.855211 0.915632
306 2 0.654056 0.954064 0.916507
309 2 0.646011 0.852814 0.971569
310 1 0.64986 0.953248 0.972716
307 2 0.748223 0.851447 0.919906
292 1 0.752872 0.753814 0.91435
370 2 0.852356 0.750215 0.911588
376 2 0.949129 0.750335 0.971829
392 2 0.955253 0.947162 0.971334
390 1 0.852098 0.948834 0.977451
308 1 0.754333 0.954095 0.918646
312 2 0.755048 0.950923 0.972868
391 1 0.952024 0.848884 0.973537
311 1 0.75314 0.856267 0.972446
372 1 0.951764 0.750738 0.920403
386 2 0.845323 0.948928 0.916221
388 1 0.957144 0.953048 0.915747
385 1 0.84753 0.845715 0.916497
387 2 0.952173 0.850508 0.916657
389 2 0.846173 0.847171 0.974065
