LAMMPS (2 Aug 2023)
Reading data file ...
  orthogonal box = (-14.2 -14.2 -25.68) to (14.2 14.2 25.68)
  1 by 1 by 2 MPI processor grid
  reading atoms ...
  409 atoms
  scanning bonds ...
  3 = max bonds/atom
  scanning angles ...
  6 = max angles/atom
  scanning dihedrals ...
  9 = max dihedrals/atom
  reading bonds ...
  8 bonds
  reading angles ...
  13 angles
  reading dihedrals ...
  12 dihedrals
Finding 1-2 1-3 1-4 neighbors ...
  special bond factors lj:    0        0        0       
  special bond factors coul:  0        0        0       
     4 = max # of 1-2 neighbors
     4 = max # of 1-3 neighbors
     7 = max # of 1-4 neighbors
     8 = max # of special neighbors
  special bonds CPU = 0.000 seconds
  read_data CPU = 0.011 seconds
400 atoms in group nacl
9 atoms in group eth
1 atoms in group oxy
9 atoms in group mol2
1 atoms in group topull
PPPM initialization ...
  using 12-bit tables for long-range coulomb (../kspace.cpp:342)
  G vector (1/distance) = 0.26209145
  grid = 15 15 24
  stencil order = 5
  estimated absolute RMS force accuracy = 0.030063103
  estimated relative force accuracy = 9.0534141e-05
  using double precision KISS FFT
  3d grid and FFT values/proc = 8228 2700
Generated 21 of 21 mixed pair_coeff terms from arithmetic mixing rule
Neighbor list info ...
  update: every = 1 steps, delay = 0 steps, check = yes
  max neighbors/atom: 2000, page size: 100000
  master list distance cutoff = 12
  ghost atom cutoff = 12
  binsize = 6, bins = 5 5 9
  1 neighbor lists, perpetual/occasional/extra = 1 0 0
  (1) pair lj/cut/coul/long, perpetual
      attributes: half, newton on
      pair build: half/bin/newton
      stencil: half/bin/3d
      bin: standard
Setting up Verlet run ...
  Unit style    : real
  Current step  : 0
  Time step     : 1
Per MPI rank memory allocation (min/avg/max) = 12.56 | 12.79 | 13.02 Mbytes
   Step          Temp          E_pair         E_mol          TotEng         Press          Volume    
         0   300           -38732.198      0.14661238    -38367.2       -7464.4453      41424.922    
      1000   289.84778     -38685.39       4.0613015     -38328.825     -353.65332      38902.528    
      2000   315.35397     -38682.325      6.6980803     -38292.103     -110.49833      38902.451    
      3000   317.67042     -38695.907      4.6496914     -38304.916     -112.65957      38771.162    
      4000   318.24823     -38634.908      6.3926018     -38241.472      149.85795      38932.416    
      5000   289.42335     -38669.811      4.2360213     -38313.587      26.332537      38889.336    
      6000   289.71042     -38636.096      5.5246628     -38278.234     -398.1331       39002.027    
      7000   297.83538     -38687.782      5.0746188     -38320.489     -463.06528      38999.171    
      8000   311.61163     -38684.229      7.2562172     -38298          321.07742      38777.882    
      9000   314.33894     -38673.078      4.9508564     -38285.837      847.82863      38702.479    
     10000   293.55403     -38668.368      4.1273227     -38307.229      203.63522      38811.978    
     11000   293.57248     -38671.588      4.7720985     -38309.782     -22.390659      38957.536    
     12000   279.55965     -38659.372      5.2595314     -38314.12      -88.288328      39041.599    
     13000   307.71975     -38682.291      6.9585241     -38301.092      85.172839      38851.331    
     14000   329.29787     -38647.776      7.042344      -38240.251      326.1185       38909.481    
     15000   312.21286     -38684.422      7.4491551     -38297.268      293.12799      38755.549    
     16000   295.18971     -38700.536      5.7938251     -38335.741      662.30514      38688.198    
     17000   314.11042     -38675.964      6.5269948     -38287.425      425.2931       38736.055    
     18000   288.7287      -38682.42       3.7249928     -38327.552     -240.48396      39023.228    
     19000   287.01556     -38648.409      9.4943795     -38289.854     -304.16489      39006.687    
     20000   307.21542     -38660.484      5.2574296     -38281.6       -52.024964      38832.423    
Loop time of 37.5027 on 2 procs for 20000 steps with 409 atoms

Performance: 46.077 ns/day, 0.521 hours/ns, 533.296 timesteps/s, 218.118 katom-step/s
97.5% CPU use with 2 MPI tasks x no OpenMP threads

MPI task timing breakdown:
Section |  min time  |  avg time  |  max time  |%varavg| %total
---------------------------------------------------------------
Pair    | 4.947      | 8.4597     | 11.972     | 120.8 | 22.56
Bond    | 0.0075714  | 0.035225   | 0.062878   |  14.7 |  0.09
Kspace  | 15.352     | 18.832     | 22.311     |  80.2 | 50.21
Neigh   | 0.19482    | 0.19578    | 0.19674    |   0.2 |  0.52
Comm    | 0.48699    | 0.52566    | 0.56433    |   5.3 |  1.40
Output  | 0.0012534  | 0.0013795  | 0.0015056  |   0.3 |  0.00
Modify  | 9.2628     | 9.3344     | 9.406      |   2.3 | 24.89
Other   |            | 0.119      |            |       |  0.32

Nlocal:          204.5 ave         209 max         200 min
Histogram: 1 0 0 0 0 0 0 0 0 1
Nghost:         1127.5 ave        1132 max        1123 min
Histogram: 1 0 0 0 0 0 0 0 0 1
Neighs:          21387 ave       29964 max       12810 min
Histogram: 1 0 0 0 0 0 0 0 0 1

Total # of neighbors = 42774
Ave neighs/atom = 104.58191
Ave special neighs/atom = 0.16136919
Neighbor list builds = 281
Dangerous builds = 0
PPPM initialization ...
  using 12-bit tables for long-range coulomb (../kspace.cpp:342)
  G vector (1/distance) = 0.26385083
  grid = 15 15 24
  stencil order = 5
  estimated absolute RMS force accuracy = 0.028306144
  estimated relative force accuracy = 8.5243113e-05
  using double precision KISS FFT
  3d grid and FFT values/proc = 8228 2700
Generated 21 of 21 mixed pair_coeff terms from arithmetic mixing rule
Setting up Verlet run ...
  Unit style    : real
  Current step  : 20000
  Time step     : 1
Per MPI rank memory allocation (min/avg/max) = 13.57 | 13.8 | 14.03 Mbytes
   Step          Temp          E_pair         E_mol          TotEng         Press     
     20000   307.21542     -38659.423      5.2574296     -38280.539     -42.789058    
     21000   293.36592     -38674.411      9.1917874     -38308.436     -0.73362228   
     22000   290.60267     -38687.923      7.2869871     -38327.213      312.15041    
     23000   304.98833     -38689.371      6.6728005     -38311.78       361.27021    
     24000   284.75242     -38690.179      6.0545901     -38337.817     -97.481637    
     25000   300.65023     -38716.032      8.5691515     -38341.821     -439.29442    
     26000   349.61455     -38683.452      6.8552981     -38251.406      2.4257944    
     27000   277.5852      -38713.019      4.8618159     -38370.567      12.135449    
     28000   310.3562      -38700.911      4.358668      -38319.106      104.49916    
     29000   305.15941     -38706.859      6.3890738     -38329.344     -219.01962    
     30000   325.76762     -38666.506      4.1969349     -38266.121     -239.28597    
Loop time of 14.6418 on 2 procs for 10000 steps with 409 atoms

Performance: 59.009 ns/day, 0.407 hours/ns, 682.977 timesteps/s, 279.338 katom-step/s
96.5% CPU use with 2 MPI tasks x no OpenMP threads

MPI task timing breakdown:
Section |  min time  |  avg time  |  max time  |%varavg| %total
---------------------------------------------------------------
Pair    | 2.6005     | 4.649      | 6.6975     |  95.0 | 31.75
Bond    | 0.0024829  | 0.014784   | 0.027084   |  10.1 |  0.10
Kspace  | 7.3895     | 9.4591     | 11.529     |  67.3 | 64.60
Neigh   | 0.096283   | 0.096572   | 0.09686    |   0.1 |  0.66
Comm    | 0.26865    | 0.28484    | 0.30104    |   3.0 |  1.95
Output  | 0.00055095 | 0.00061788 | 0.00068481 |   0.0 |  0.00
Modify  | 0.09542    | 0.10613    | 0.11685    |   3.3 |  0.72
Other   |            | 0.03071    |            |       |  0.21

Nlocal:          204.5 ave         209 max         200 min
Histogram: 1 0 0 0 0 0 0 0 0 1
Nghost:         1108.5 ave        1113 max        1104 min
Histogram: 1 0 0 0 0 0 0 0 0 1
Neighs:          21376 ave       29959 max       12793 min
Histogram: 1 0 0 0 0 0 0 0 0 1

Total # of neighbors = 42752
Ave neighs/atom = 104.52812
Ave special neighs/atom = 0.16136919
Neighbor list builds = 125
Dangerous builds = 0
PPPM initialization ...
  using 12-bit tables for long-range coulomb (../kspace.cpp:342)
  G vector (1/distance) = 0.26385083
  grid = 15 15 24
  stencil order = 5
  estimated absolute RMS force accuracy = 0.028306144
  estimated relative force accuracy = 8.5243113e-05
  using double precision KISS FFT
  3d grid and FFT values/proc = 8228 2700
Generated 21 of 21 mixed pair_coeff terms from arithmetic mixing rule
Setting up Verlet run ...
  Unit style    : real
  Current step  : 30000
  Time step     : 1
Per MPI rank memory allocation (min/avg/max) = 13.57 | 13.8 | 14.03 Mbytes
   Step          Temp          E_pair         E_mol          TotEng         Press     
     30000   325.76762     -38666.506      4.1969349     -38266.121     -239.28597    
     31000   291.13996     -38689.752      7.6842082     -38327.992     -228.44771    
     32000   312.54292     -38691.463      6.224402      -38305.133     -102.01357    
     33000   292.74388     -38714.193      6.3076971     -38351.859     -47.821513    
     34000   299.37514     -38675.136      5.3394237     -38305.705      24.873345    
     35000   304.94132     -38683.93       7.238506      -38305.831     -391.50418    
     36000   309.50802     -38701.294      5.6153571     -38319.265      13.366823    
     37000   295.9233      -38672.012      8.501581      -38303.617      222.00451    
     38000   301.11241     -38712.384      7.7939777     -38338.386     -88.150367    
     39000   294.40075     -38684.122      6.473705      -38319.607      23.126893    
     40000   316.22601     -38675.163      6.5742283     -38284.004      143.01237    
     41000   298.74352     -38691.891      7.7151508     -38320.853      73.391704    
     42000   327.09445     -38692.054      8.7148456     -38285.536     -41.085638    
     43000   305.19038     -38676.626      6.4235212     -38299.038      4.9533361    
     44000   307.94619     -38682.766      5.1497613     -38303.101     -195.24574    
     45000   298.07142     -38696.034      7.1186558     -38326.409     -235.18514    
     46000   315.49476     -38697.257      9.6140232     -38303.948      288.99931    
     47000   307.31034     -38667.279      7.2175538     -38286.32       241.14182    
     48000   285.55617     -38690.144      6.5366369     -38336.322     -43.813704    
     49000   293.66694     -38651.736      12.447099     -38282.14      -295.18809    
     50000   316.6359      -38672.189      7.8622305     -38279.244     -645.83295    
     51000   303.4354      -38712.471      6.8453351     -38336.596     -129.0079     
     52000   293.81416     -38700.353      10.766019     -38332.259      447.27362    
     53000   298.77472     -38679.802      7.6945258     -38308.747     -370.90076    
     54000   294.04884     -38685.7        8.7063268     -38319.38      -528.49879    
     55000   298.26051     -38691.593      5.0268412     -38323.83      -90.674626    
     56000   291.88639     -38667.261      9.702907      -38302.574     -9.7594615    
     57000   287.19512     -38688.124      5.4319225     -38333.414     -229.48925    
     58000   287.54495     -38692.204      7.7523093     -38334.748      173.33667    
     59000   267.11899     -38682.627      11.013803     -38346.751     -200.17743    
     60000   313.3639      -38697.61       8.2309462     -38308.275     -76.715418    
     61000   283.13257     -38693.663      7.7189451     -38341.607     -98.476431    
     62000   308.4163      -38683.73       5.4649943     -38303.178      51.19732     
     63000   303.62908     -38682.608      14.672711     -38298.671      80.949894    
     64000   294.6077      -38690.55       6.6967951     -38325.56      -84.4052      
     65000   287.31575     -38665.057      13.47906      -38302.153     -123.05472    
     66000   297.71321     -38684.34       5.6884655     -38316.582     -10.35686     
     67000   336.77907     -38701.643      8.4293937     -38283.633      12.596544    
     68000   299.98217     -38697.505      9.9777096     -38322.698     -209.25835    
     69000   300.50595     -38694.147      6.8189702     -38321.862     -70.806441    
     70000   317.99386     -38695.714      6.5510536     -38302.428      70.096485    
     71000   294.4488      -38710.134      5.9207554     -38346.113     -9.109881     
     72000   294.28765     -38692.012      9.8312739     -38324.277     -474.77256    
     73000   315.15027     -38672.144      11.815979     -38277.051      247.11258    
     74000   304.88663     -38693.839      7.771603      -38315.273     -63.165311    
     75000   305.40098     -38694.731      13.194262     -38310.117     -791.84099    
     76000   294.87904     -38700.935      5.5208167     -38336.791     -677.86267    
     77000   312.17768     -38703.46       9.5577772     -38314.241     -5.6805475    
     78000   307.80322     -38692.431      9.9924327     -38308.097      289.26616    
     79000   294.96306     -38683.541      5.2678608     -38319.548      215.03686    
     80000   281.51875     -38679.326      7.149689      -38329.802     -547.50191    
     81000   277.51316     -38689.437      8.8192567     -38343.115     -361.42448    
     82000   326.34198     -38698.631      8.9308984     -38292.813      78.434231    
     83000   289.42763     -38697.98       9.5740806     -38336.413      152.88387    
     84000   295.35021     -38642.424      10.69686      -38272.531     -167.77325    
     85000   302.38834     -38693.533      7.5279134     -38318.249     -159.73816    
     86000   301.77629     -38685.967      10.275235     -38308.681     -29.582502    
     87000   292.01428     -38709.941      10.668059     -38344.134      253.30221    
     88000   316.34172     -38653.806      11.691792     -38257.388      121.07649    
     89000   295.1094      -38699.808      8.2297065     -38332.675     -329.42088    
     90000   300.97638     -38678.036      6.779067      -38305.219      32.021055    
     91000   310.70652     -38706.092      11.148971     -38317.071     -23.004113    
     92000   292.27775     -38693.872      11.478646     -38326.933     -293.66866    
     93000   301.47596     -38688.824      10.785925     -38311.392      228.14692    
     94000   316.17564     -38701.549      12.024346     -38305.002      211.06439    
     95000   271.5255      -38696.182      9.6060356     -38356.354     -391.0151     
     96000   302.01258     -38669.629      8.3322297     -38293.998      93.162499    
     97000   302.67345     -38701.203      10.208073     -38322.892     -66.404472    
     98000   310.77661     -38688.203      9.0442104     -38301.201      87.351768    
     99000   303.08815     -38693.895      8.5963246     -38316.692     -252.05543    
    100000   297.15857     -38691.006      6.8926483     -38322.717     -31.646143    
    101000   280.95882     -38672.532      8.7049682     -38322.133     -253.33199    
    102000   302.85912     -38699.346      11.892028     -38319.126     -108.66297    
    103000   294.24205     -38687.601      10.907819     -38318.845     -113.02211    
    104000   290.17573     -38691.712      8.7651806     -38330.044     -333.23958    
    105000   321.40267     -38691.908      8.285334      -38292.742     -46.731134    
    106000   296.34843     -38685.258      7.1152488     -38317.733      19.304005    
    107000   305.62455     -38701.475      9.8757438     -38319.908     -415.91292    
    108000   287.75953     -38697.647      6.5851881     -38341.097     -127.76967    
    109000   310.94825     -38695.209      5.8777349     -38311.165     -114.85924    
    110000   296.00391     -38707.047      7.1865445     -38339.869     -319.42464    
    111000   278.42283     -38687.885      8.9096797     -38340.366     -67.280143    
    112000   305.87807     -38680.312      9.5296806     -38298.782     -156.15805    
    113000   325.71849     -38680.69       6.3314454     -38278.229     -115.59707    
    114000   293.56953     -38685.775      6.4104052     -38322.334     -381.85573    
    115000   294.41262     -38694.474      6.7733542     -38329.645     -235.87752    
    116000   307.64203     -38679.486      7.3183698     -38298.023      349.27987    
    117000   292.45455     -38687.522      8.7819506     -38323.066     -147.66143    
    118000   299.96533     -38693.472      5.5730507     -38323.09      -249.8336     
    119000   306.76491     -38688.914      11.746313     -38304.089      40.61229     
    120000   287.77498     -38697.658      5.7894099     -38341.886     -3.6649015    
    121000   287.19591     -38657.002      7.8452296     -38299.877     -51.325923    
    122000   296.07944     -38673.463      7.1612732     -38306.219      15.088923    
    123000   302.12234     -38703.968      4.1091448     -38332.427      54.515199    
    124000   308.43032     -38700.902      10.849301     -38314.948     -614.60011    
    125000   292.29313     -38671.21       8.5558676     -38307.176     -99.407183    
    126000   302.83094     -38688.019      7.2030069     -38312.522      208.23494    
    127000   271.20209     -38686.521      8.1144764     -38348.579      65.207169    
    128000   292.18185     -38691.667      10.24337      -38326.081     -15.113447    
    129000   298.45512     -38668.497      8.5905311     -38296.934      387.90148    
    130000   306.97169     -38703.372      7.2012092     -38322.841     -309.29475    
    131000   303.1362      -38659.894      7.9232675     -38283.306     -393.07744    
    132000   284.98471     -38714.671      7.7565979     -38360.325     -155.54251    
    133000   302.04658     -38689.712      8.4190012     -38313.953     -175.54751    
    134000   281.99976     -38678.654      9.3008153     -38326.394     -461.22769    
    135000   276.92896     -38692.705      7.2464246     -38348.666      24.174181    
    136000   308.40282     -38673.447      8.4458804     -38289.931      88.079808    
    137000   313.2244      -38705.431      6.3957431     -38318.101     -139.36292    
    138000   284.09049     -38682.166      4.9514067     -38331.712     -186.12365    
    139000   306.56379     -38692.793      4.199005      -38315.761      61.550812    
    140000   311.43966     -38680.381      8.7192286     -38292.898     -49.687225    
    141000   303.2349      -38690.451      8.198079      -38313.467      123.62359    
    142000   292.37755     -38686.372      3.873923      -38326.917     -322.65945    
    143000   314.23565     -38686.262      5.5272531     -38298.571     -240.00809    
    144000   309.24896     -38701.86       8.2484291     -38317.512      29.345147    
    145000   312.77286     -38671.856      10.510527     -38280.96      -32.373192    
    146000   292.85682     -38690.546      8.4418634     -38325.94      -19.986229    
    147000   293.08687     -38673.548      10.935301     -38306.169      50.682666    
    148000   278.47579     -38701.815      5.4592926     -38357.682     -3.9695777    
    149000   303.00072     -38679.099      11.965745     -38298.633     -356.05698    
    150000   291.469       -38696.681      6.1263316     -38336.079     -185.55356    
    151000   304.32791     -38691.904      7.619047      -38314.17      -143.67335    
    152000   299.93812     -38717.736      9.3185447     -38343.642     -57.340473    
    153000   286.06504     -38688.969      8.0872729     -38332.978     -30.496521    
    154000   288.04194     -38673.043      5.966523      -38316.768     -206.77325    
    155000   290.50178     -38713.294      5.3593223     -38354.635     -7.0734755    
    156000   310.71116     -38680.851      8.7834522     -38294.19      -23.359188    
    157000   301.48843     -38707.302      8.0474157     -38332.593      172.88797    
    158000   302.23994     -38671.11       6.1632964     -38297.371     -341.33926    
    159000   289.71252     -38702.681      6.8476659     -38343.493     -37.37524     
    160000   300.00978     -38677.358      7.0177008     -38305.477     -514.5536     
    161000   311.20632     -38659.843      5.2338597     -38276.129     -337.57114    
    162000   302.1043      -38718.863      4.3131414     -38347.14      -311.64182    
    163000   311.48667     -38680.418      7.8522821     -38293.745     -17.205573    
    164000   304.70124     -38704.514      7.1905628     -38326.755     -232.73409    
    165000   300.77327     -38685.581      7.8679152     -38311.921     -272.53066    
    166000   309.41995     -38688.331      7.1804008     -38304.843      237.12756    
    167000   301.72907     -38683.144      6.5202633     -38309.67       227.62392    
    168000   276.45006     -38708.171      7.4921076     -38364.468     -504.07245    
    169000   293.29129     -38673.14       5.7285952     -38310.72      -132.21349    
    170000   295.33065     -38702.195      9.8077182     -38333.215      247.47036    
    171000   296.0393      -38671.821      4.7857955     -38307.001      395.38622    
    172000   321.39809     -38721.797      8.776827      -38322.146     -414.25061    
    173000   310.47477     -38695.337      8.9270509     -38308.82      -292.4396     
    174000   295.64684     -38695.849      7.8319868     -38328.46      -405.65568    
    175000   287.42385     -38683.953      10.315779     -38324.081     -275.88783    
    176000   298.77823     -38681.731      7.2589337     -38311.106     -97.810078    
    177000   275.9623      -38700.793      8.8441636     -38356.332      70.574203    
    178000   314.93831     -38699.517      6.6062727     -38309.893     -63.081759    
    179000   297.29516     -38695.443      5.572694      -38328.309      140.72837    
    180000   317.29436     -38677.782      8.0701787     -38283.828     -233.48537    
    181000   297.54818     -38699.174      5.1243823     -38332.18       1.4607741    
    182000   315.13338     -38679.035      6.5173936     -38289.262      126.71254    
    183000   293.81637     -38701.089      5.1849611     -38338.574     -176.56307    
    184000   274.96199     -38653.103      4.9567113     -38313.745      56.626816    
    185000   306.33053     -38716.37       7.4598843     -38336.36      -46.428738    
    186000   323.90752     -38703.075      5.476549      -38303.672     -76.195408    
    187000   294.108       -38700.019      4.4164911     -38337.917     -270.01093    
    188000   307.61564     -38678.768      9.2338429     -38295.421      3.5600372    
    189000   309.75745     -38684.937      6.2016256     -38302.017      24.134096    
    190000   308.96055     -38697.332      6.723676      -38314.86      -9.697906     
    191000   316.20535     -38679.068      8.4299786     -38286.078      73.873745    
    192000   305.63716     -38684.288      5.8868477     -38306.694      37.509093    
    193000   286.88503     -38689.143      5.3292972     -38334.912     -496.21249    
    194000   312.37817     -38677.359      7.8814096     -38289.572     -229.30138    
    195000   330.04711     -38692.85       5.8067928     -38285.649      440.07356    
    196000   302.35427     -38703.722      7.8699672     -38328.138     -65.549786    
    197000   296.46389     -38698.418      8.6044365     -38329.263     -163.98058    
    198000   300.87693     -38679.073      5.137179      -38308.018      158.13968    
    199000   284.60956     -38696.71       8.5276562     -38342.049     -103.09862    
    200000   296.03427     -38685.233      8.2584054     -38316.947     -82.551444    
    201000   263.22843     -38685.358      7.8893263     -38357.338     -312.70461    
    202000   304.00884     -38688.023      5.904593      -38312.392     -26.466191    
    203000   284.22148     -38692.725      7.4399335     -38339.623      7.348693     
    204000   298.75089     -38681.493      6.1638468     -38311.997     -27.376765    
    205000   313.00711     -38693.784      4.4074922     -38308.706      94.286639    
    206000   294.79072     -38704.714      6.8431382     -38339.355     -19.999225    
    207000   313.52079     -38692.127      8.2517479     -38302.58      -254.35442    
    208000   305.32774     -38684.891      5.2531027     -38308.307     -121.11442    
    209000   291.38218     -38702.778      5.4122013     -38342.995     -32.836637    
    210000   321.20727     -38666.66       9.4305013     -38266.586      168.46602    
    211000   302.97386     -38691.095      6.2420014     -38316.385     -105.07324    
    212000   293.64754     -38683.011      8.3095735     -38317.576     -155.54937    
    213000   328.94413     -38691.623      5.3481257     -38286.222      102.28257    
    214000   296.7331      -38690.952      10.773651     -38319.3       -4.583772     
    215000   311.05928     -38693.283      9.1946435     -38305.787     -118.35649    
    216000   293.43481     -38702.382      10.933916     -38334.581     -388.53752    
    217000   291.19166     -38663.81       6.4338152     -38303.237     -101.53686    
    218000   304.22733     -38700.903      9.5832753     -38321.327      34.627639    
    219000   299.88911     -38666.696      8.8824665     -38293.097      207.10004    
    220000   303.4498      -38689.806      7.4089583     -38313.35       95.651225    
    221000   295.02021     -38692.529      9.1346454     -38324.6       -94.621783    
    222000   303.56466     -38678.19       8.4583572     -38300.546     -298.10533    
    223000   289.30254     -38703.206      5.90411       -38345.46      -126.29949    
    224000   297.96827     -38681.907      9.5524091     -38309.974      35.645151    
    225000   317.81244     -38677.803      7.6128965     -38283.676      70.521794    
    226000   313.77187     -38712.026      7.8405553     -38322.585     -248.42565    
    227000   293.87861     -38682.371      9.709066      -38315.256     -122.72788    
    228000   279.2043      -38702.537      5.7665409     -38357.21      -144.19161    
    229000   314.66531     -38720.275      7.5564017     -38330.032     -48.421253    
    230000   308.95949     -38693.214      6.0136168     -38311.453      211.39327    
    231000   290.34646     -38687.435      6.9292726     -38327.395     -78.135261    
    232000   293.17934     -38650.945      6.9507313     -38287.438      277.83903    
    233000   296.99415     -38673.401      3.821801      -38308.383     -57.643115    
    234000   280.55657     -38692.389      4.4421966     -38346.742     -4.5184024    
    235000   296.26013     -38676          5.4355297     -38310.262     -11.450339    
    236000   279.94426     -38690.849      7.9721273     -38342.416     -184.37088    
    237000   299.62738     -38703.221      7.6870394     -38331.136      370.83591    
    238000   281.34866     -38674.941      5.8568424     -38326.916      224.5703     
    239000   300.05688     -38697.02       5.1805237     -38326.919     -337.76179    
    240000   312.23343     -38678.302      7.0815155     -38291.491      49.637028    
    241000   304.18801     -38686.282      5.4329935     -38310.905      517.44999    
    242000   307.47056     -38696.212      3.8296436     -38318.446     -125.783      
    243000   276.44642     -38681.41       6.5489085     -38338.656     -781.75766    
    244000   303.89587     -38699.635      6.1615088     -38323.884     -201.12312    
    245000   297.92964     -38686.533      3.7119766     -38320.488      26.285719    
    246000   330.45016     -38641.761      7.1992027     -38232.678      260.06473    
    247000   296.68729     -38697.168      4.7065871     -38331.639     -192.78359    
    248000   295.49719     -38708.327      6.0758699     -38342.877     -219.2808     
    249000   295.31048     -38677.858      8.892182      -38309.818      55.796436    
    250000   290.08049     -38690.895      6.4374238     -38331.67       95.900493    
    251000   293.08352     -38670.56       8.7925787     -38305.328      238.23449    
    252000   325.92976     -38690.769      7.6682399     -38286.714     -73.937179    
    253000   294.12769     -38691.214      7.5503124     -38325.955     -154.44742    
    254000   297.06418     -38657.595      7.1986266     -38289.116      2.2046622    
    255000   318.87742     -38696.138      7.4454243     -38300.883      160.24783    
    256000   288.42987     -38679.202      5.2209139     -38323.201      101.0034     
    257000   317.48289     -38686.11       7.5539864     -38292.442      0.080124988  
    258000   303.42072     -38709.836      8.7940535     -38332.03      -250.48473    
    259000   283.83113     -38684.909      5.9421591     -38333.78      -400.21148    
    260000   293.11895     -38673.728      8.6038133     -38308.641      111.51527    
    261000   302.41437     -38694.806      6.8295416     -38320.189     -211.23003    
    262000   291.61612     -38665.301      5.9949062     -38304.651     -42.920838    
    263000   288.16021     -38685.872      9.0482413     -38326.372     -45.568063    
    264000   290.54464     -38691.304      7.6378642     -38330.314      287.85738    
    265000   303.11022     -38686.477      6.8523709     -38310.991     -3.0192884    
    266000   288.15415     -38704.02       5.5269813     -38348.048      131.36269    
    267000   317.50825     -38690.408      7.1923345     -38297.071     -169.06441    
    268000   294.03021     -38692.424      8.24049       -38326.593     -11.127205    
    269000   315.86634     -38669.518      7.3845054     -38277.986      111.59244    
    270000   289.49244     -38680.236      7.1410816     -38321.023      52.41435     
    271000   313.40118     -38698.601      6.5020187     -38310.95      -20.346243    
    272000   307.93105     -38659.787      7.346276      -38277.944      4.846888     
    273000   293.89236     -38689.512      8.7195758     -38323.369      101.12811    
    274000   310.2956      -38666.266      8.5940423     -38280.299      317.21388    
    275000   306.72761     -38691.906      7.7328145     -38311.14      -29.788855    
    276000   298.15132     -38668.025      7.9886569     -38297.433     -110.93151    
    277000   299.0324      -38703.245      9.0753473     -38330.496     -54.810462    
    278000   288.7005      -38688.411      6.2101683     -38331.092      32.772904    
    279000   289.10893     -38683.902      5.2880813     -38327.009      96.97713     
    280000   328.33734     -38691.421      7.6508846     -38284.456      105.37143    
    281000   301.63432     -38708.042      10.200411     -38331.003     -60.537439    
    282000   329.19454     -38666.401      6.841977      -38259.202     -50.006991    
    283000   301.18647     -38695.021      8.925796      -38319.801      355.66821    
    284000   310.48543     -38695.477      5.6554908     -38312.219     -12.989903    
    285000   308.17852     -38700.357      9.1536346     -38316.405     -618.88129    
    286000   286.56829     -38672.356      8.498237      -38315.342     -394.76911    
    287000   292.662       -38715.923      8.7848149     -38351.211     -70.773431    
    288000   322.94411     -38708.866      8.9010161     -38307.21       170.98819    
    289000   289.48324     -38699.693      9.4834841     -38338.149     -269.93752    
    290000   335.55154     -38702.483      8.6386031     -38285.756     -155.82129    
    291000   293.46707     -38697.866      6.8852554     -38334.075     -170.16332    
    292000   296.04281     -38694.165      7.1547815     -38326.972     -417.06453    
    293000   319.60104     -38694.764      5.0801737     -38300.995      77.106807    
    294000   287.924       -38695.655      7.933618      -38337.556      247.00828    
    295000   290.71668     -38678.519      11.771395     -38313.187      14.554403    
    296000   299.70917     -38687.677      6.5168743     -38316.662     -172.30055    
    297000   301.81095     -38684.94       9.0382384     -38308.848     -26.058832    
    298000   282.5766      -38704.163      5.8486258     -38354.653     -190.59653    
    299000   298.36195     -38680.396      7.8596281     -38309.677     -234.59737    
    300000   291.75491     -38692.975      5.2623208     -38332.889     -180.5283     
    301000   325.95601     -38676.987      8.4950588     -38272.074      170.1585     
    302000   304.71626     -38705.17       9.5329133     -38325.05      -64.677133    
    303000   293.91734     -38703.496      5.1215267     -38340.921     -394.5528     
    304000   298.46423     -38673.535      4.9196196     -38305.632     -82.098602    
    305000   301.6816      -38692.882      7.6489412     -38318.337     -35.09116     
    306000   294.2856      -38699.917      6.8505666     -38335.165     -0.75930638   
    307000   279.58042     -38674.198      7.3631367     -38326.818     -239.71606    
    308000   314.76425     -38699.782      6.4032897     -38310.572     -139.22333    
    309000   316.26721     -38689.339      6.4839187     -38298.22       57.661628    
    310000   304.24402     -38684.42       5.2030999     -38309.205      277.49114    
    311000   290.78605     -38706.096      6.5178326     -38345.933     -164.38576    
    312000   287.3035      -38671.048      6.2057556     -38315.432     -9.2142431    
    313000   289.77147     -38707.434      6.2985183     -38348.724     -167.43538    
    314000   318.6662      -38698.203      9.0715239     -38301.579     -77.095168    
    315000   308.74211     -38701.135      7.0460849     -38318.606      83.712871    
    316000   307.22504     -38678.812      9.5378656     -38295.636      207.20404    
    317000   286.78506     -38683.811      5.2225346     -38329.809     -140.18579    
    318000   306.70269     -38699.121      7.827212      -38318.291     -343.58827    
    319000   297.36786     -38697.437      8.9198097     -38326.868     -260.09109    
    320000   300.73743     -38705.942      8.054325      -38332.139      170.88459    
    321000   302.32221     -38675.089      5.7029627     -38301.71      -80.782915    
    322000   277.71202     -38688.19       6.7512962     -38343.694      143.70289    
    323000   303.15322     -38680.953      7.1182188     -38305.149      312.89508    
    324000   292.6889      -38709.252      5.2179144     -38348.075     -48.968316    
    325000   307.08062     -38695.678      5.9027116     -38316.313     -316.91376    
    326000   311.46179     -38693.672      6.3712927     -38308.511      117.61441    
    327000   320.3971      -38695.469      7.0619137     -38298.749      86.826745    
    328000   271.12829     -38689.865      6.863247      -38353.264     -322.53037    
    329000   315.59191     -38677.262      5.2226614     -38288.226     -438.06507    
    330000   315.99973     -38701.349      4.2323622     -38312.808     -234.33455    
    331000   301.89825     -38693.052      7.5254375     -38318.367      53.481674    
    332000   315.09057     -38677.589      4.9989803     -38289.386      340.16013    
    333000   295.84023     -38686.314      5.4386309     -38321.083     -175.37972    
    334000   292.90399     -38669.3        10.245676     -38302.833     -156.07354    
    335000   305.04161     -38682.026      4.7963054     -38306.247      437.6329     
    336000   306.96607     -38695.27       7.1130233     -38314.834      109.18154    
    337000   301.37109     -38680.185      9.3112633     -38304.355      11.082558    
    338000   297.57526     -38689.814      8.327034      -38319.584     -247.34788    
    339000   281.73108     -38677.371      9.161835      -38325.577     -321.44944    
    340000   300.63085     -38685.064      5.5270802     -38313.918      17.067898    
    341000   302.19585     -38676.219      6.0919167     -38302.606      49.777678    
    342000   298.3096      -38694.106      5.3939741     -38325.916     -479.64268    
    343000   306.20214     -38721.367      6.3824602     -38342.591     -218.2288     
    344000   318.24873     -38692.863      4.9665081     -38300.851      132.3182     
    345000   282.52155     -38699.511      10.414068     -38345.503     -279.93007    
    346000   304.6723      -38679.122      3.8388087     -38304.75      -128.59714    
    347000   286.72798     -38690.953      8.6009893     -38333.641     -70.091283    
    348000   294.60059     -38698.981      8.6261967     -38332.071     -300.15151    
    349000   292.00154     -38682.004      8.5789447     -38318.301      302.92375    
    350000   325.99081     -38678.291      3.4123148     -38278.418      207.29996    
    351000   294.22765     -38685.933      8.2805366     -38319.822     -339.0594     
    352000   281.05498     -38718.392      4.1572975     -38372.424     -227.35348    
    353000   295.44632     -38678.049      7.3165018     -38311.419     -144.93592    
    354000   281.1081      -38690.217      6.1991268     -38342.142     -237.89976    
    355000   308.82488     -38684.603      6.6685663     -38302.351     -291.04749    
    356000   321.46545     -38682.926      9.1536099     -38282.815      50.483661    
    357000   302.78096     -38682.404      6.1157716     -38308.054     -309.7833     
    358000   276.78849     -38692.439      3.7858838     -38352.031     -430.02566    
    359000   284.98537     -38687.499      5.5073162     -38335.401     -242.42874    
    360000   298.49915     -38684.255      7.5296639     -38313.699      469.48424    
    361000   339.43114     -38714.244      7.7415052     -38293.697      164.77642    
    362000   301.47702     -38703.132      5.3139564     -38331.171     -485.82244    
    363000   279.91643     -38674.142      3.8954425     -38329.821     -96.533064    
    364000   295.26244     -38676.324      4.2828915     -38312.952      403.11896    
    365000   274.91036     -38692.963      6.3538331     -38352.271      263.13876    
    366000   306.22858     -38681.269      8.2316229     -38300.611     -490.16317    
    367000   315.95962     -38682.604      5.5522846     -38292.791     -140.26294    
    368000   302.79453     -38675.979      6.3699851     -38301.359      10.051456    
    369000   298.39886     -38671.843      6.7295256     -38302.21       26.357357    
    370000   290.05859     -38693.48       7.3858589     -38333.333     -191.51729    
    371000   284.06509     -38697.486      3.6896927     -38348.324     -108.67722    
    372000   299.29126     -38675.898      7.9114222     -38303.997      145.0406     
    373000   291.62463     -38693.171      5.9862206     -38332.52       41.384457    
    374000   292.1165      -38672.461      8.898733      -38308.299      168.22545    
    375000   285.6128      -38671.058      7.7226645     -38315.981      119.58359    
    376000   291.40964     -38687.83       6.8017954     -38326.625     -130.18051    
    377000   297.88514     -38687.234      6.9945425     -38317.96      -269.03587    
    378000   293.35724     -38667.153      7.4469569     -38302.933      4.4990843    
    379000   305.03077     -38682.276      7.706883      -38303.599      55.362653    
    380000   305.93405     -38702.164      7.2114297     -38322.885     -80.52194     
    381000   293.80153     -38698.542      7.6954999     -38333.534     -280.07201    
    382000   307.77891     -38669.777      7.2730515     -38288.192     -297.92734    
    383000   301.73535     -38707.879      4.2245925     -38336.693     -44.943698    
    384000   307.87782     -38657.289      6.9235116     -38275.933      241.34587    
    385000   300.50075     -38680.996      5.6663141     -38309.87      -193.66434    
    386000   284.56532     -38695.653      7.932177      -38341.641     -193.90218    
    387000   294.88688     -38672.783      8.1553398     -38305.995      177.54083    
    388000   291.12797     -38712.478      3.0406198     -38355.376      43.551748    
    389000   290.24121     -38680.666      7.0397758     -38320.643      5.4911838    
    390000   306.38682     -38676.383      7.9977945     -38295.766      61.597624    
    391000   294.99794     -38680.86       7.3188287     -38314.774      23.58115     
    392000   295.56763     -38677.02       6.5018994     -38311.057     -27.25359     
    393000   291.95304     -38684.05       6.2203919     -38322.765      93.535553    
    394000   296.51279     -38657.009      6.3354627     -38290.063      592.59441    
    395000   297.73485     -38678.917      8.499445      -38308.321      171.60308    
    396000   292.6313      -38687.836      5.0985544     -38326.848     -234.77034    
    397000   288.33784     -38668.868      7.3821147     -38310.818     -68.006387    
    398000   291.13016     -38703.837      5.1839928     -38344.589     -154.26044    
    399000   301.52037     -38690.044      6.7838774     -38316.56      -286.76214    
    400000   284.87187     -38713.071      7.3499862     -38359.268     -93.204847    
    401000   302.19671     -38704.609      6.4278648     -38330.658      218.87616    
    402000   286.41775     -38703.509      9.0561598     -38346.12      -15.709882    
    403000   301.85693     -38684.062      6.2944986     -38310.658     -355.62731    
    404000   289.83178     -38706.128      6.5377018     -38347.105     -217.56229    
    405000   293.43963     -38684.488      8.7614682     -38318.854      111.25979    
    406000   308.65216     -38701.985      7.8813424     -38318.73       104.74663    
    407000   292.56432     -38700.537      8.2305319     -38336.498     -176.53055    
    408000   312.12942     -38675.257      8.9052086     -38286.749     -157.97412    
    409000   294.27029     -38701.545      6.5844926     -38337.077     -191.16775    
    410000   307.13432     -38690.003      8.9190937     -38307.556      42.841171    
    411000   312.63058     -38698.881      9.0700542     -38309.599     -34.366634    
    412000   279.87281     -38701.356      7.5536783     -38353.429     -79.029855    
    413000   291.28017     -38675.079      8.362503      -38312.47      -435.84102    
    414000   279.74169     -38699.813      6.8684863     -38352.731     -289.19809    
    415000   295.05283     -38671.654      7.0154943     -38305.804      115.5516     
    416000   302.68084     -38674.508      8.0720563     -38298.325      102.82637    
    417000   291.6893      -38702.103      7.0817681     -38340.278     -201.7668     
    418000   295.25989     -38698.818      10.322705     -38329.409     -251.33404    
    419000   288.98939     -38696.397      8.2902841     -38336.646     -216.57253    
    420000   319.61328     -38660.642      9.2602771     -38262.677      564.60166    
    421000   297.82293     -38707.97       6.7253785     -38339.041      17.026475    
    422000   316.90542     -38699.91       4.3734568     -38310.125     -316.35186    
    423000   269.75406     -38694.373      8.3855163     -38357.92      -393.92299    
    424000   295.91591     -38687.828      7.4839379     -38320.46      -70.704442    
    425000   293.79755     -38667.757      8.4269696     -38302.022      402.36742    
    426000   295.21873     -38660.328      8.2336473     -38293.058     -110.24498    
    427000   312.28405     -38694.792      8.4342606     -38306.567     -636.39898    
    428000   298.61823     -38693.62       6.4234812     -38324.026     -196.32871    
    429000   321.33084     -38692.476      6.8133009     -38294.87       93.290035    
    430000   293.80177     -38698.061      6.3237701     -38334.424      2.5766745    
    431000   302.39728     -38694.493      9.185842      -38317.541     -388.59314    
    432000   308.21709     -38686.399      5.9918288     -38305.563     -184.76455    
    433000   300.34111     -38692.853      5.1754812     -38322.412      94.57195     
    434000   313.03839     -38670.817      6.8412359     -38283.268     -33.682723    
    435000   287.49733     -38682.674      6.4365867     -38326.592     -71.080976    
    436000   307.64567     -38691.768      7.4017983     -38310.216     -132.60949    
    437000   314.36347     -38664.537      6.7496904     -38275.468      171.10906    
    438000   294.65095     -38688.114      9.2193397     -38320.549     -102.45343    
    439000   325.15559     -38675.556      4.5916435     -38275.52      -374.21428    
    440000   305.02647     -38686.273      9.5756068     -38305.733     -86.626075    
    441000   302.36049     -38699.591      6.2979381     -38325.571      283.10785    
    442000   312.32333     -38655.596      9.9840905     -38265.773      248.7354     
    443000   285.74179     -38679.939      8.6941356     -38323.734     -17.176375    
    444000   313.99985     -38670.392      7.0898194     -38281.425     -227.62996    
    445000   299.46391     -38680.199      8.807602      -38307.192     -99.916009    
    446000   300.01746     -38698.196      7.6678274     -38325.655      193.87313    
    447000   319.12333     -38684.522      7.5470465     -38288.867     -65.839914    
    448000   280.40947     -38679.948      5.8192504     -38333.103      2.7673902    
    449000   303.78905     -38675.016      6.4140358     -38299.143      372.05021    
    450000   291.25939     -38687.608      5.3147546     -38328.072     -267.29909    
    451000   303.48242     -38682.635      8.1264149     -38305.422      75.688301    
    452000   302.14547     -38687.186      7.0941141     -38312.632     -73.213476    
    453000   312.79847     -38683.315      7.2432771     -38295.655      74.50014     
    454000   295.15929     -38711.01       6.5011963     -38345.545      329.87886    
    455000   297.1176      -38689.668      5.6126597     -38322.709     -152.18247    
    456000   308.77447     -38693.625      7.5808389     -38310.522     -554.66569    
    457000   304.54783     -38707.667      6.7266633     -38330.559     -393.07123    
    458000   296.39249     -38660.1        3.9309274     -38295.705     -120.5645     
    459000   305.69423     -38694.997      8.154528      -38315.066     -181.33326    
    460000   299.38316     -38694.13       7.2004862     -38322.829     -383.98963    
    461000   284.17401     -38690.548      7.308117      -38337.635     -62.501081    
    462000   304.91065     -38684.962      5.2339665     -38308.904     -423.06589    
    463000   297.69084     -38705.338      4.1873175     -38339.108      2.202051     
    464000   321.39606     -38670.038      7.4979925     -38271.668      23.343558    
    465000   304.45496     -38691.94       9.3264447     -38312.344     -170.94246    
    466000   288.90174     -38689.752      6.1899551     -38332.208     -43.873232    
    467000   297.10764     -38674.758      5.0188498     -38308.405      39.275517    
    468000   293.47129     -38685.49       6.1231817     -38322.456     -5.4113918    
    469000   296.87372     -38666.275      7.4493486     -38297.776     -100.94366    
    470000   310.14582     -38705.16       5.9843626     -38321.985     -148.23739    
    471000   312.30579     -38702.369      8.7369207     -38313.815      267.26485    
    472000   288.50328     -38716.573      8.7066491     -38356.997     -143.21004    
    473000   308.15761     -38689.21       8.4259559     -38306.012      177.29078    
    474000   300.52863     -38700.389      7.0885554     -38327.807     -132.54975    
    475000   310.3107      -38669.623      11.244029     -38280.988     -182.03917    
    476000   311.52687     -38708.54       7.0533578     -38322.617      54.205659    
    477000   314.52005     -38678.718      10.70042      -38285.508      224.08818    
    478000   306.61034     -38676.721      9.3016922     -38294.528      43.488       
    479000   292.12758     -38701.647      6.4843172     -38339.885     -8.0354628    
    480000   297.29306     -38644.537      6.6316549     -38276.346     -298.75131    
    481000   292.99903     -38701.11       6.4886778     -38338.285     -117.35836    
    482000   303.47367     -38680.246      6.3844022     -38304.786      167.39039    
    483000   303.28038     -38676.281      7.7639285     -38299.677     -85.799828    
    484000   283.44655     -38677.56       7.9792445     -38324.861     -235.57735    
    485000   314.02303     -38716.834      12.060889     -38322.867     -192.78295    
    486000   295.89306     -38706.171      8.6731121     -38337.642     -262.91744    
    487000   319.16386     -38652.99       12.117589     -38252.715     -306.41785    
    488000   296.24205     -38714.654      5.9423268     -38348.431      156.66735    
    489000   286.56339     -38685.486      8.1005609     -38328.876      302.49962    
    490000   298.99589     -38661.867      9.568439      -38288.669     -246.0983     
    491000   293.20167     -38680.149      6.6436655     -38316.922     -204.70822    
    492000   285.01776     -38667.394      6.9925656     -38313.771      124.9274     
    493000   319.55431     -38677.586      11.20363      -38277.75       74.476989    
    494000   284.99193     -38674.623      8.9323673     -38319.092      255.80181    
    495000   293.74652     -38692.524      9.7451467     -38325.533      178.38108    
    496000   298.83113     -38681.315      6.8521599     -38311.034      45.109275    
    497000   290.02444     -38678.858      4.5969664     -38321.541     -229.39564    
    498000   300.12622     -38678.21       7.2417218     -38305.964     -2.9658912    
    499000   299.74671     -38706.192      8.4133608     -38333.236     -17.182592    
    500000   303.46557     -38717.525      7.8796634     -38340.579      120.01112    
    501000   307.16301     -38713.639      7.0245004     -38333.051     -135.50633    
    502000   303.91658     -38672.2        8.3736625     -38294.212      98.457464    
    503000   285.85629     -38665.821      5.168178      -38313.003     -165.27334    
    504000   282.50467     -38682.756      6.234459      -38332.948     -366.99748    
    505000   300.90304     -38686.689      7.7526066     -38312.987     -71.644293    
    506000   287.78631     -38679.142      8.5629158     -38320.582     -387.04727    
    507000   297.86069     -38671.268      8.7461731     -38300.273      69.028741    
    508000   319.3259      -38668.164      5.6111523     -38274.198      335.02903    
    509000   273.90826     -38677.905      8.3099946     -38336.476     -98.631388    
    510000   303.10155     -38656.365      8.4915031     -38279.251     -73.091308    
    511000   310.99089     -38693.636      9.8731369     -38305.545     -307.62013    
    512000   291.19969     -38675.869      7.7696573     -38313.951      248.43029    
    513000   307.09705     -38697.472      9.8901364     -38314.1        57.169456    
    514000   299.24149     -38716.976      5.2081488     -38347.839     -362.70985    
    515000   314.8264      -38696.767      7.9953611     -38305.889     -190.57738    
    516000   287.99358     -38703.866      7.7372058     -38345.88      -215.21667    
    517000   300.18251     -38694.598      8.4131865     -38321.112     -106.34426    
    518000   317.85576     -38685.339      7.2344157     -38291.538      30.998488    
    519000   300.62015     -38711.163      7.5333166     -38338.024     -94.729277    
    520000   289.68326     -38691.524      8.9598118     -38330.26       213.21557    
    521000   297.03861     -38679.058      5.7554946     -38312.053      215.72646    
    522000   285.5851      -38677          6.6209849     -38323.059     -278.12993    
    523000   285.46505     -38710.085      7.2664856     -38355.644     -300.01937    
    524000   321.67723     -38701.789      9.4239778     -38301.15      -295.5537     
    525000   299.06954     -38710.515      8.6150036     -38338.181      78.389422    
    526000   294.80039     -38689.255      9.6820822     -38321.046      290.4608     
    527000   300.94556     -38673.423      12.594076     -38294.828      27.014236    
    528000   291.41749     -38670.266      11.510959     -38304.342     -330.81125    
    529000   280.57829     -38692.732      5.9925313     -38345.508     -141.24622    
    530000   311.11321     -38682.365      9.9333325     -38294.065     -123.83816    
Loop time of 736.891 on 2 procs for 500000 steps with 409 atoms

Performance: 58.625 ns/day, 0.409 hours/ns, 678.526 timesteps/s, 277.517 katom-step/s
96.9% CPU use with 2 MPI tasks x no OpenMP threads

MPI task timing breakdown:
Section |  min time  |  avg time  |  max time  |%varavg| %total
---------------------------------------------------------------
Pair    | 129.77     | 232.52     | 335.28     | 673.9 | 31.55
Bond    | 0.12522    | 0.7651     | 1.405      |  73.2 |  0.10
Kspace  | 373.1      | 476.5      | 579.9      | 473.7 | 64.66
Neigh   | 4.5624     | 4.579      | 4.5956     |   0.8 |  0.62
Comm    | 14.55      | 14.962     | 15.375     |  10.7 |  2.03
Output  | 0.031869   | 0.031916   | 0.031964   |   0.0 |  0.00
Modify  | 5.4187     | 6.105      | 6.7912     |  27.8 |  0.83
Other   |            | 1.424      |            |       |  0.19

Nlocal:          204.5 ave         209 max         200 min
Histogram: 1 0 0 0 0 0 0 0 0 1
Nghost:         1104.5 ave        1109 max        1100 min
Histogram: 1 0 0 0 0 0 0 0 0 1
Neighs:          21471 ave       30109 max       12833 min
Histogram: 1 0 0 0 0 0 0 0 0 1

Total # of neighbors = 42942
Ave neighs/atom = 104.99267
Ave special neighs/atom = 0.16136919
Neighbor list builds = 5918
Dangerous builds = 0
PPPM initialization ...
  using 12-bit tables for long-range coulomb (../kspace.cpp:342)
  G vector (1/distance) = 0.26385083
  grid = 15 15 24
  stencil order = 5
  estimated absolute RMS force accuracy = 0.028306144
  estimated relative force accuracy = 8.5243113e-05
  using double precision KISS FFT
  3d grid and FFT values/proc = 8228 2700
Generated 21 of 21 mixed pair_coeff terms from arithmetic mixing rule
Setting up Verlet run ...
  Unit style    : real
  Current step  : 530000
  Time step     : 1
Per MPI rank memory allocation (min/avg/max) = 13.57 | 13.8 | 14.03 Mbytes
   Step          Temp          E_pair         E_mol          TotEng         Press     
    530000   311.11321     -38682.365      9.9333325     -38294.065     -123.83816    
    531000   309.11896     -38685.529      11.621348     -38297.967      404.93615    
    532000   308.94257     -38700.289      8.5775946     -38315.985      242.38712    
    533000   326.46484     -38682.431      3.8240767     -38281.571     -654.81921    
    534000   290.63879     -38681.148      6.9414799     -38320.74      -128.60051    
    535000   314.60587     -38712.654      8.4257669     -38321.614     -131.62876    
    536000   299.52256     -38704.686      7.4735768     -38332.942     -328.03186    
    537000   288.55623     -38673.364      4.7849381     -38317.646     -193.42743    
    538000   286.55651     -38681.18       8.4432985     -38324.235     -95.229442    
    539000   265.83492     -38685.446      8.7575845     -38353.388      11.964426    
    540000   285.58924     -38659.454      6.2298303     -38305.899     -75.792079    
Loop time of 14.6243 on 2 procs for 10000 steps with 409 atoms

Performance: 59.080 ns/day, 0.406 hours/ns, 683.793 timesteps/s, 279.671 katom-step/s
97.2% CPU use with 2 MPI tasks x no OpenMP threads

MPI task timing breakdown:
Section |  min time  |  avg time  |  max time  |%varavg| %total
---------------------------------------------------------------
Pair    | 2.5995     | 4.6226     | 6.6458     |  94.1 | 31.61
Bond    | 0.0023709  | 0.015135   | 0.027899   |  10.4 |  0.10
Kspace  | 7.4534     | 9.4696     | 11.486     |  65.5 | 64.75
Neigh   | 0.099326   | 0.099674   | 0.10002    |   0.1 |  0.68
Comm    | 0.26722    | 0.27921    | 0.2912     |   2.3 |  1.91
Output  | 0.0005338  | 0.00059205 | 0.0006503  |   0.0 |  0.00
Modify  | 0.095407   | 0.11043    | 0.12546    |   4.5 |  0.76
Other   |            | 0.02705    |            |       |  0.18

Nlocal:          204.5 ave         209 max         200 min
Histogram: 1 0 0 0 0 0 0 0 0 1
Nghost:         1106.5 ave        1111 max        1102 min
Histogram: 1 0 0 0 0 0 0 0 0 1
Neighs:          21360 ave       29946 max       12774 min
Histogram: 1 0 0 0 0 0 0 0 0 1

Total # of neighbors = 42720
Ave neighs/atom = 104.44988
Ave special neighs/atom = 0.16136919
Neighbor list builds = 129
Dangerous builds = 0
PPPM initialization ...
  using 12-bit tables for long-range coulomb (../kspace.cpp:342)
  G vector (1/distance) = 0.26385083
  grid = 15 15 24
  stencil order = 5
  estimated absolute RMS force accuracy = 0.028306144
  estimated relative force accuracy = 8.5243113e-05
  using double precision KISS FFT
  3d grid and FFT values/proc = 8228 2700
Generated 21 of 21 mixed pair_coeff terms from arithmetic mixing rule
Setting up Verlet run ...
  Unit style    : real
  Current step  : 540000
  Time step     : 1
Per MPI rank memory allocation (min/avg/max) = 13.57 | 13.8 | 14.03 Mbytes
   Step          Temp          E_pair         E_mol          TotEng         Press     
    540000   285.58924     -38659.454      6.2298303     -38305.899     -75.792079    
    541000   285.84367     -38710.792      7.0203522     -38356.137     -246.17166    
    542000   298.80146     -38676.333      7.7645451     -38305.174      309.96754    
    543000   317.58168     -38715.749      10.65367      -38318.862      146.53141    
    544000   304.82385     -38658.256      11.907989     -38275.63       164.02879    
    545000   298.70447     -38696.531      8.2600525     -38324.995     -255.89039    
    546000   300.45862     -38686.633      9.9997403     -38311.224     -295.70718    
    547000   304.66118     -38672.231      9.561114      -38292.15      -30.688128    
    548000   286.49624     -38699.551      4.6118638     -38346.511     -58.906908    
    549000   310.78359     -38700.976      6.9059147     -38316.104      7.2441831    
    550000   296.89048     -38682.067      8.1017577     -38312.895      149.59749    
    551000   294.23278     -38705.925      6.8511207     -38341.237      5.9909267    
    552000   316.36232     -38686.17       9.0836135     -38292.336      7.6379139    
    553000   307.44542     -38706.439      5.7377852     -38326.795     -225.86689    
    554000   283.27804     -38684.77       7.9980296     -38332.258     -40.320521    
    555000   321.3572      -38695.145      2.3262142     -38301.994      55.694374    
    556000   295.90588     -38703.808      7.5856181     -38336.35      -207.71633    
    557000   293.68186     -38686.328      10.079386     -38319.082      21.527356    
    558000   294.5569      -38680.124      8.5752803     -38313.318     -110.35183    
    559000   293.27417     -38706.824      9.1126653     -38341.04       252.53076    
    560000   295.81581     -38675.997      8.127434      -38308.107      48.591318    
    561000   290.6175      -38684.615      8.6286806     -38322.546      105.12511    
    562000   325.54619     -38692.103      8.1046306     -38288.078      0.61449492   
    563000   286.92223     -38705.712      6.827737      -38349.938     -335.84122    
    564000   305.63576     -38694.701      5.9399548     -38317.056     -90.873896    
    565000   318.15582     -38655.078      2.9773277     -38265.169      278.71588    
    566000   293.91464     -38700.22       7.6259907     -38335.143      17.255346    
    567000   310.16891     -38686.054      6.6058066     -38302.23      -311.77277    
    568000   281.10118     -38691.632      11.290762     -38338.475     -403.23223    
    569000   297.08102     -38667.161      8.6552221     -38297.204     -89.469118    
    570000   295.67945     -38703.871      6.9158406     -38337.358      21.249616    
    571000   292.39081     -38678.904      6.8011005     -38316.505     -53.413739    
    572000   295.82885     -38708.276      6.7796964     -38341.718     -468.58335    
    573000   319.02475     -38694.199      6.673694      -38299.537     -478.68049    
    574000   290.75093     -38683.505      6.8829956     -38323.02      -6.2340737    
    575000   304.89036     -38669.844      9.2111968     -38289.834      24.484175    
    576000   284.84403     -38680.373      4.2793989     -38329.675     -228.30582    
    577000   299.70401     -38665.378      7.0605862     -38293.826      164.75817    
    578000   302.01407     -38706.479      8.491965      -38330.686     -100.51967    
    579000   306.1714      -38710.145      6.4274782     -38331.361      60.025356    
    580000   299.1275      -38683.127      7.8991174     -38311.438     -190.90211    
    581000   284.82496     -38700.572      5.4174512     -38348.759     -370.01928    
    582000   302.77584     -38688.755      7.7009904     -38312.827      56.074898    
    583000   292.74636     -38680.443      9.1354482     -38315.278     -23.286671    
    584000   311.49301     -38721.688      7.608766      -38335.251     -291.81041    
    585000   296.50056     -38682.439      6.5307463     -38315.313     -176.17135    
    586000   301.2167      -38687.904      9.1678366     -38312.406     -44.605853    
    587000   302.18231     -38669.428      3.6333797     -38298.289      114.42474    
    588000   296.00458     -38706.56       7.2684821     -38339.299     -128.29635    
    589000   305.72807     -38666.264      9.4869821     -38284.96       162.14486    
    590000   286.21622     -38685.691      11.183552     -38326.42      -292.55362    
    591000   317.39889     -38704.347      6.6989199     -38311.636     -125.84669    
    592000   299.26567     -38677.422      5.4260342     -38308.038      350.52667    
    593000   311.23305     -38699.822      8.4382439     -38312.872     -124.11503    
    594000   292.10485     -38697.914      7.1289711     -38335.536     -181.17474    
    595000   300.74404     -38676.255      4.275741      -38306.224      104.7532     
    596000   275.16117     -38700.291      9.839138      -38355.809     -421.77661    
    597000   301.14836     -38688.859      4.8310902     -38317.78      -378.65133    
    598000   291.28132     -38679.284      5.4167021     -38319.62       87.497818    
    599000   305.8278      -38700.461      7.8967702     -38320.625      17.591167    
    600000   299.70681     -38705.058      5.1257789     -38335.437     -289.861      
    601000   298.59267     -38677.823      7.0264384     -38307.657     -346.26094    
    602000   290.42317     -38712.791      5.5333718     -38354.053     -49.801304    
    603000   302.01702     -38697.855      7.3519082     -38323.199     -225.61591    
    604000   295.02201     -38680.946      7.7535441     -38314.396      196.78522    
    605000   287.89653     -38685.897      3.0738099     -38332.692     -116.59491    
    606000   311.20412     -38656.569      7.3245269     -38270.767     -136.64326    
    607000   306.5548      -38704.494      10.446633     -38321.225     -248.46082    
    608000   312.92507     -38674.078      7.9361121     -38285.572     -274.99552    
    609000   301.67335     -38698.024      7.0451777     -38324.093      107.55377    
    610000   311.00008     -38670.226      9.4669027     -38282.53       94.167012    
    611000   295.12677     -38691.043      10.441008     -38321.678     -366.61176    
    612000   308.2794      -38668.702      8.673268      -38285.109      224.31874    
    613000   301.86905     -38662.965      6.8416321     -38288.999      56.095585    
    614000   307.84444     -38684.761      7.5584567     -38302.811     -134.99147    
    615000   308.78888     -38701.578      5.7778185     -38320.261     -176.18634    
    616000   302.77274     -38672.521      9.2637436     -38295.034      214.59925    
    617000   299.07127     -38689.079      7.1406118     -38318.217     -213.87007    
    618000   310.86828     -38707.587      8.0191562     -38321.499     -310.19606    
    619000   303.56091     -38682.148      4.0393162     -38308.927     -231.98645    
    620000   297.11771     -38687.665      9.3237866     -38316.995     -62.328705    
    621000   306.61381     -38702.12       7.8097389     -38321.416     -280.74138    
    622000   298.71026     -38693.098      9.4049468     -38320.41      -204.68633    
    623000   297.2285      -38690.996      8.9532627     -38320.562     -370.18969    
    624000   320.55544     -38697.201      10.25363      -38297.097      0.68388617   
    625000   284.35099     -38677.539      8.5295957     -38323.19       40.459063    
    626000   298.40655     -38683.601      7.3066426     -38313.381     -117.5323     
    627000   306.80258     -38714.881      7.405288      -38334.352     -217.28043    
    628000   305.28888     -38705.825      6.5376394     -38328.004     -284.78488    
    629000   297.18765     -38654.574      8.080921      -38285.062      186.91826    
    630000   310.94092     -38701.199      8.3578377     -38314.684      251.68618    
    631000   303.80778     -38684.349      5.7856643     -38309.081      2.1886509    
    632000   284.65091     -38701.755      7.6282764     -38347.943     -202.6202     
    633000   317.72339     -38690.838      7.9783404     -38296.454      114.05147    
    634000   292.21843     -38697.918      11.388862     -38331.142     -180.84524    
    635000   282.2273      -38667.038      5.1276559     -38318.674     -669.84602    
    636000   303.71166     -38681.017      6.5774618     -38305.075      84.136068    
    637000   287.56771     -38695.447      8.4318882     -38337.284      171.17917    
    638000   297.23036     -38704.511      8.7757015     -38334.252     -7.0219319    
    639000   310.25654     -38699.839      10.538068     -38311.976     -125.6486     
    640000   309.58949     -38667.606      5.3469523     -38285.746     -81.604778    
    641000   289.90714     -38686.769      7.190617      -38327.002      141.84312    
    642000   303.40237     -38713.354      4.1353996     -38340.229     -261.17706    
    643000   304.00606     -38670.899      6.4964199     -38294.68       19.205519    
    644000   312.60721     -38682.662      8.478425      -38294         -234.6811     
    645000   292.72508     -38678.255      4.8652117     -38317.387     -89.734839    
    646000   285.02503     -38699.988      6.5981644     -38346.751     -295.92126    
    647000   298.29721     -38687.382      6.041263      -38318.56      -157.02628    
    648000   312.94189     -38692.608      5.6336022     -38306.384      64.220349    
    649000   288.92413     -38681.238      7.1668159     -38322.69      -173.89553    
    650000   299.07748     -38688.413      6.9839044     -38317.7       -386.19959    
    651000   312.38318     -38675.966      5.9800815     -38290.075      305.97009    
    652000   318.56061     -38705.127      8.0006606     -38309.703     -98.678063    
    653000   304.9498      -38677.426      7.2376704     -38299.317     -65.22052     
    654000   276.1287      -38690.598      7.126674      -38347.652     -271.84448    
    655000   292.33011     -38693.708      8.6157758     -38329.569     -331.13994    
    656000   310.23472     -38690.477      4.8798842     -38308.298     -80.293048    
    657000   273.98706     -38684.236      9.9324905     -38341.088     -132.86099    
    658000   305.89288     -38686.848      6.7696615     -38308.061      237.75745    
    659000   293.15045     -38704.157      3.0916911     -38344.544     -84.589577    
    660000   301.40429     -38699.988      7.4980056     -38325.931     -312.95985    
    661000   308.4053      -38660.728      6.37824       -38279.277      150.06468    
    662000   291.35228     -38695.428      8.3691096     -38332.725     -44.262997    
    663000   303.93516     -38675.91       6.2457562     -38300.027     -153.18712    
    664000   278.6713      -38685.512      5.089566      -38341.511      70.284055    
    665000   322.01975     -38661.655      7.0036506     -38263.021      84.361862    
    666000   307.32994     -38705.183      5.9637688     -38325.454     -14.864792    
    667000   306.17238     -38681.162      7.9122068     -38300.892     -51.401741    
    668000   303.27074     -38702.244      7.1499098     -38326.265      59.344506    
    669000   325.26979     -38654.39       3.9216354     -38254.885      299.62263    
    670000   309.14909     -38706.032      5.1414785     -38324.913     -207.75753    
    671000   320.38271     -38681.967      6.4302563     -38285.897     -177.29501    
    672000   284.38363     -38691.623      8.0591375     -38337.705      21.948817    
    673000   312.11813     -38691.902      7.1718032     -38305.142     -183.83857    
    674000   266.48145     -38683.24       8.2564066     -38350.897     -314.87928    
    675000   299.19228     -38660.888      5.1420224     -38291.877      237.80413    
    676000   292.70635     -38684.92       2.942885      -38325.996     -125.04791    
    677000   278.54968     -38695.126      4.7145291     -38351.647     -378.54549    
    678000   305.65876     -38689.265      6.4090698     -38311.123     -261.07609    
    679000   279.63721     -38687.148      4.7129849     -38342.349     -49.706627    
    680000   295.05126     -38689.53       6.4074409     -38324.29      -343.56278    
    681000   288.47682     -38675.945      6.588459      -38318.52      -155.17844    
    682000   311.58572     -38696.12       6.538047      -38310.64      -381.51919    
    683000   304.51565     -38703.768      6.1678274     -38327.257     -197.96209    
    684000   298.29504     -38671.663      7.7495929     -38301.136      9.4892126    
    685000   290.71802     -38692.572      7.389259      -38331.62      -28.562024    
    686000   298.20282     -38687.386      6.8749708     -38317.846     -480.43731    
    687000   306.50613     -38681.249      4.9298826     -38303.556     -187.80281    
    688000   290.01754     -38711.553      7.9312926     -38350.911      290.35711    
    689000   327.22919     -38687.111      4.4981047     -38284.646      26.453485    
    690000   312.56091     -38697.141      3.5989618     -38313.415      2.3784708    
    691000   281.88831     -38703.1        5.4742701     -38354.802     -354.89899    
    692000   307.92672     -38690.894      5.3161725     -38311.087     -99.572555    
    693000   274.73192     -38693.427      10.157956     -38349.148     -78.786753    
    694000   314.9751      -38696.565      5.5290025     -38307.973      21.724554    
    695000   303.94205     -38692.015      4.0944038     -38318.276     -92.353207    
    696000   316.98817     -38665.518      4.6856141     -38275.321     -177.36472    
    697000   294.85914     -38672.403      7.0276824     -38306.776      91.703192    
    698000   280.73179     -38680.506      7.1364582     -38331.952      235.35388    
    699000   305.99512     -38679.945      7.9356233     -38299.868      26.596566    
    700000   315.94171     -38681.899      4.9441099     -38292.716     -47.943812    
    701000   302.01291     -38675.915      4.1293844     -38304.487     -261.61456    
    702000   295.5881      -38687.358      4.5303729     -38323.342     -31.82046     
    703000   291.18684     -38684.408      4.6525371     -38325.623     -100.79421    
    704000   300.17065     -38676.147      5.485599      -38305.603     -18.727105    
    705000   311.46543     -38692.636      6.4985809     -38307.343      171.46041    
    706000   295.0436      -38669.031      7.1163633     -38303.092     -273.45532    
    707000   321.89845     -38689.595      8.713959      -38289.398     -200.14419    
    708000   287.38286     -38690.994      5.8572421     -38335.63      -59.282802    
    709000   294.31245     -38669.719      6.387972      -38305.397      109.89478    
    710000   302.93436     -38674.317      4.5828657     -38301.315      248.57815    
    711000   302.23321     -38666.515      6.8222116     -38292.125     -142.69004    
    712000   283.46861     -38679.068      4.5907206     -38329.731      7.1403259    
    713000   315.28923     -38668.752      3.6993676     -38281.607      227.43599    
    714000   314.97945     -38703.42       4.1058699     -38316.246     -215.4115     
    715000   318.30229     -38674.692      5.7626338     -38281.819      321.16429    
    716000   293.07092     -38678.948      4.2022173     -38318.322      157.4113     
    717000   298.20653     -38680.823      4.7632218     -38313.389     -58.941415    
    718000   292.43016     -38713.619      5.8915392     -38352.082     -540.42051    
    719000   308.06052     -38686.045      5.2373001     -38306.153     -605.18063    
    720000   305.88306     -38668.377      4.9002378     -38291.471     -344.80046    
    721000   301.69381     -38686.56       4.5312626     -38315.118      229.78193    
    722000   307.66768     -38656.687      3.1493419     -38279.362      210.61307    
    723000   284.93322     -38676.311      2.6708247     -38327.113     -240.09721    
    724000   277.40482     -38688.901      4.2577958     -38347.272     -244.4092     
    725000   314.91173     -38686.313      2.6350778     -38300.691     -106.79976    
    726000   290.92755     -38700.421      3.6460949     -38342.957      159.91079    
    727000   296.31546     -38675.951      5.1763879     -38310.404     -374.67453    
    728000   288.6772      -38675.462      6.2545789     -38318.127      15.534906    
    729000   306.50008     -38664.107      5.2771875     -38286.074     -34.875652    
    730000   293.40644     -38691.119      5.308289      -38328.978      92.923845    
    731000   292.03752     -38696.455      4.6364836     -38336.651     -210.58916    
    732000   313.16551     -38686.296      4.1326529     -38301.3       -401.59389    
    733000   294.27254     -38700.587      3.7651001     -38338.936     -156.67547    
    734000   292.30753     -38670.304      3.9517236     -38310.857     -35.857802    
    735000   309.29663     -38685.392      5.6860758     -38303.548     -67.637316    
    736000   293.08732     -38682.475      6.1742727     -38319.857     -97.07208     
    737000   321.73613     -38673.508      5.7111581     -38276.511      43.831226    
    738000   288.77713     -38671.797      4.0067728     -38316.588      253.92221    
    739000   298.56598     -38682.793      4.4670375     -38315.219     -218.70743    
    740000   318.14728     -38676.245      4.504418      -38284.819     -180.01153    
    741000   289.84413     -38682.812      4.185066      -38326.127     -99.028297    
    742000   299.82444     -38714.016      4.521636      -38344.856     -366.05754    
    743000   302.8457      -38694.002      4.1187459     -38321.571     -327.34804    
    744000   309.11919     -38676.488      2.6743293     -38297.872      327.2695     
    745000   292.2227      -38693.314      4.0962964     -38333.825      51.482932    
    746000   299.42746     -38670.898      4.5736116     -38302.169      132.68508    
    747000   288.33568     -38701.087      6.2225697     -38344.199     -126.74184    
    748000   309.25733     -38654.575      6.6800604     -38271.785      175.34404    
    749000   308.34302     -38695.562      3.5658946     -38316.999      177.12259    
    750000   299.217       -38666.719      5.7249034     -38297.095      130.96912    
    751000   307.1704      -38722.501      5.5154294     -38343.414     -203.91591    
    752000   302.05194     -38689.395      5.2510122     -38316.797     -10.057075    
    753000   287.86052     -38665.936      5.3367916     -38310.512      20.912703    
    754000   319.74365     -38694.353      6.1288118     -38299.361      40.761602    
    755000   321.43202     -38677.018      4.0077055     -38282.095      489.99786    
    756000   303.23986     -38662.853      6.6290691     -38287.432      167.00936    
    757000   303.56828     -38696.55       4.8515851     -38322.508     -233.65704    
    758000   320.14516     -38688.519      6.6120038     -38292.556     -41.459382    
    759000   294.85528     -38698.462      6.0958078     -38333.772      181.17404    
    760000   308.7471      -38665.522      7.5617606     -38282.471      252.6291     
    761000   293.99578     -38692.63       4.4989492     -38330.582     -161.85403    
    762000   297.44728     -38669.056      6.4362421     -38300.874     -70.568524    
    763000   286.84422     -38688.052      4.152819      -38335.048     -182.82952    
    764000   315.71864     -38687.423      4.3585185     -38299.097     -147.88056    
    765000   294.78409     -38702.546      4.9349075     -38339.104     -116.72522    
    766000   296.4455      -38675.308      4.1672698     -38310.613      15.818137    
    767000   298.35956     -38664.179      4.6216077     -38296.702      280.96547    
    768000   311.27546     -38680.953      3.9274091     -38298.461      43.14044     
    769000   279.80968     -38661.218      4.8708524     -38316.051     -373.8539     
    770000   286.7051      -38678.283      5.1644026     -38324.437      69.402446    
    771000   275.72679     -38695.511      3.4409714     -38356.739      487.60508    
    772000   313.32299     -38669.309      5.9937508     -38282.261      98.713244    
    773000   315.71739     -38688.887      4.3461799     -38300.574     -308.10646    
    774000   287.31961     -38662.853      6.2623296     -38307.161      51.78536     
    775000   297.53537     -38644.578      5.4507199     -38277.273      326.42558    
    776000   304.24784     -38697.052      5.0901973     -38321.944      23.081881    
    777000   317.63726     -38682.217      6.1219847     -38289.794     -154.89329    
    778000   298.52566     -38690.394      4.5458377     -38322.79      -127.69713    
    779000   313.75598     -38686.595      3.847014      -38301.167     -124.72082    
    780000   292.64853     -38691.308      4.0129684     -38331.385     -90.007588    
    781000   290.45486     -38678.2        6.9546448     -38318.003      169.44785    
    782000   310.45127     -38720.423      5.6881746     -38337.173     -390.15138    
    783000   298.78482     -38681.282      5.1256698     -38312.783     -172.34626    
    784000   295.98329     -38693.62       5.7030649     -38327.95      -270.8257     
    785000   285.69483     -38661.168      3.7047198     -38310.01       289.14742    
    786000   307.43071     -38705.58       2.949177      -38328.743      102.75141    
    787000   315.46036     -38677.632      4.9670788     -38289.012     -228.99255    
    788000   285.11634     -38682.21       4.6449262     -38330.815     -347.58239    
    789000   312.43008     -38677.883      5.8055737     -38292.11       0.92357871   
    790000   299.81817     -38692.058      4.7091593     -38322.719     -96.097759    
    791000   307.30741     -38670.18       4.6774625     -38291.764     -255.04872    
    792000   275.54279     -38688.164      5.0617967     -38347.995     -533.15251    
    793000   269.50354     -38652.756      6.2030865     -38318.79      -272.39111    
    794000   291.60822     -38687.114      4.9851251     -38327.483      6.7058878    
    795000   338.8635      -38693.015      5.6968098     -38275.202      288.78351    
    796000   301.36569     -38686.017      5.566599      -38313.938     -75.102626    
    797000   307.34198     -38701.697      4.7424495     -38323.174     -182.02062    
    798000   318.25779     -38669.437      5.1971688     -38277.184      166.1669     
[...]
  25307000   306.83969     -38666.257      4.6362153     -38288.451     -7.9219705    
  25308000   308.81082     -38692.409      4.7548231     -38312.088     -217.20553    
  25309000   317.07959     -38698.181      5.6820999     -38306.876     -308.27054    
  25310000   294.59127     -38664.884      4.4658052     -38302.145      26.732217    
  25311000   317.28586     -38665.27       6.061988      -38273.334     -130.06327    
  25312000   298.50001     -38683.505      5.0723896     -38315.406     -324.04744    
  25313000   278.03942     -38683.913      5.6537695     -38340.116     -72.431593    
  25314000   319.83633     -38658.011      6.0297998     -38263.005      269.35529    
  25315000   285.76001     -38670.747      3.8387502     -38319.375      50.990391    
  25316000   298.8464      -38691.863      5.0383126     -38323.376     -125.15143    
  25317000   307.777       -38688.648      2.9877183     -38311.351     -10.286306    
  25318000   313.9964      -38694.599      5.9321991     -38306.793      199.96616    
  25319000   309.84481     -38660.779      5.594642      -38278.36      -5.8900499    
  25320000   284.3915      -38670.808      2.6107691     -38322.329     -24.143099    
  25321000   308.6805      -38680.984      4.7482569     -38300.828      18.199699    
  25322000   288.45665     -38674.349      4.9802678     -38318.556      64.723279    
  25323000   304.32068     -38710.978      5.687091      -38335.185     -185.44973    
  25324000   299.34818     -38671.489      5.2506794     -38302.18      -128.18019    
  25325000   275.4545      -38688.567      5.6995579     -38347.868      86.971334    
  25326000   306.63867     -38671.642      3.5361336     -38295.181      45.864451    
  25327000   306.44289     -38672.267      3.84271       -38295.738     -203.43608    
  25328000   276.48397     -38676.932      2.6023807     -38338.078     -119.30233    
  25329000   304.4505      -38689.925      3.0773607     -38316.584     -186.00081    
  25330000   281.04932     -38677.153      2.8165432     -38332.533     -2.5551662    
  25331000   319.53461     -38687.004      3.5027636     -38294.893     -386.08094    
  25332000   292.3569      -38687.805      5.5195117     -38326.73      -408.70456    
  25333000   329.9655      -38698.031      4.5964978     -38292.14      -412.48166    
  25334000   295.60295     -38706.401      6.4210959     -38340.476      5.8419483    
  25335000   302.45225     -38684.946      5.7723781     -38311.34      -31.084771    
  25336000   297.2393      -38689.083      4.1271979     -38323.463     -232.20087    
  25337000   320.45969     -38680.201      4.7127447     -38285.754     -442.45846    
  25338000   271.44441     -38688.093      3.1741234     -38354.796      125.19596    
  25339000   311.85367     -38684.656      3.8226507     -38301.566     -91.940354    
  25340000   280.87525     -38674.161      3.4936211     -38329.075     -151.72921    
  25341000   306.59172     -38676.973      3.533067      -38300.572     -254.23623    
  25342000   299.1101      -38683.098      3.9238987     -38315.406      116.18684    
  25343000   322.88029     -38674.981      4.6745119     -38277.629      108.93619    
  25344000   291.06448     -38691.361      4.5348293     -38332.842     -20.073522    
  25345000   310.27694     -38669.34       3.2428157     -38288.748      225.26015    
  25346000   297.84339     -38681.06       3.8833762     -38314.949     -138.53216    
  25347000   310.81887     -38675.026      6.5816846     -38290.436      177.25897    
  25348000   298.05261     -38682.062      5.6840779     -38313.895      42.844314    
  25349000   324.07161     -38656.908      5.1344654     -38257.647     -206.91974    
  25350000   295.10684     -38686.088      6.6322299     -38320.555     -428.58691    
  25351000   317.38678     -38670.095      3.7391747     -38280.36       164.52261    
  25352000   302.3131      -38697.792      6.6429479     -38323.484      73.49678     
  25353000   314.60964     -38673.889      3.6634037     -38287.607     -133.24337    
  25354000   277.75196     -38688.947      4.4422126     -38346.711     -135.15228    
  25355000   290.93497     -38680.382      5.6355109     -38320.92       106.48893    
  25356000   309.08577     -38684.399      5.8474172     -38302.651     -91.369344    
  25357000   287.39828     -38653.389      3.7784559     -38300.085     -271.43836    
  25358000   305.16943     -38687.552      4.8649662     -38311.549      19.045137    
  25359000   285.37349     -38702.527      4.193314      -38351.271     -207.72445    
  25360000   304.9492      -38666.761      4.605195      -38291.286     -120.80459    
  25361000   289.35631     -38683.2        3.788761      -38327.505      130.93708    
  25362000   290.58832     -38663.673      5.8173269     -38304.451      96.37257     
  25363000   277.58769     -38678.353      3.7422548     -38337.016     -65.189527    
  25364000   292.34184     -38684.852      6.810114      -38322.504     -225.37416    
  25365000   274.73151     -38664.684      4.463439      -38326.1       -140.7806     
  25366000   312.378       -38690.273      5.9657805     -38304.403      285.48166    
  25367000   302.84856     -38699.321      4.8630582     -38326.142     -29.544236    
  25368000   310.28731     -38646.878      5.1616297     -38264.354     -165.67997    
  25369000   292.63231     -38695.38       4.1228326     -38335.367      197.45985    
  25370000   302.47558     -38669.897      4.2769096     -38297.759      79.092324    
  25371000   307.65073     -38681.145      4.2527716     -38302.737     -72.306955    
  25372000   281.92842     -38688.728      3.7995389     -38342.055     -234.05261    
  25373000   298.94363     -38685.641      3.1823097     -38318.892     -157.6366     
  25374000   297.9499      -38680.339      3.151371      -38314.83       108.65177    
  25375000   300.20821     -38686.89       6.1360479     -38315.649      405.92081    
  25376000   307.24094     -38661.901      6.6524355     -38281.591      58.053094    
  25377000   279.70905     -38664.123      6.6638235     -38317.285     -460.0773     
  25378000   299.10088     -38662.893      4.9220207     -38294.213     -141.45866    
  25379000   294.34465     -38694.599      4.5056064     -38332.12      -11.789689    
  25380000   302.86794     -38660.459      6.7684698     -38285.352     -76.681398    
  25381000   291.0917      -38677.444      5.364383      -38318.063     -227.36273    
  25382000   322.15518     -38686.497      3.5416072     -38291.159     -197.12864    
  25383000   290.84306     -38692.883      4.2545424     -38334.913      86.630569    
  25384000   285.07393     -38692.298      5.0702906     -38340.529     -208.05402    
  25385000   300.80809     -38678.476      3.9617001     -38308.681     -188.48203    
  25386000   286.78385     -38689.157      4.1774313     -38336.201     -453.12677    
  25387000   290.72128     -38663.638      3.2560111     -38306.816      42.043928    
  25388000   285.31876     -38697.248      4.0100145     -38346.242     -7.3849494    
  25389000   300.21429     -38657.7        5.3066965     -38287.281      80.393153    
  25390000   286.73806     -38684.171      4.514088      -38330.934     -53.696111    
  25391000   288.68232     -38653.551      5.1911972     -38297.273      230.24178    
  25392000   313.95068     -38682.579      4.1759135     -38296.585     -122.8701     
  25393000   289.71974     -38700.578      4.9361619     -38343.293      48.206272    
  25394000   298.40853     -38669.617      4.8759785     -38301.826      155.81142    
  25395000   308.67018     -38682.815      3.2196802     -38304.2       -288.26899    
  25396000   319.62545     -38692.68       5.3323467     -38298.628     -53.004827    
  25397000   280.05012     -38693.11       4.7319742     -38347.789     -455.15495    
  25398000   300.84134     -38681.975      4.2043215     -38311.896     -116.07614    
  25399000   315.20761     -38687.692      5.2222572     -38299.124     -73.15112     
  25400000   311.6623      -38674.603      4.0103497     -38291.558      523.52089    
  25401000   292.28766     -38689.603      4.8089073     -38329.322      282.62615    
  25402000   302.684       -38699.387      5.1669701     -38326.105     -552.02266    
  25403000   300.28071     -38665.91       2.0221546     -38298.695     -87.802109    
  25404000   290.7545      -38697.463      4.8514677     -38339.004      1.8032396    
  25405000   307.17973     -38683.109      4.8188052     -38304.707     -47.540609    
  25406000   284.92812     -38689.761      3.5596005     -38339.681      20.112113    
  25407000   314.23157     -38648.862      3.6306349     -38263.073      149.98494    
  25408000   313.96145     -38695.772      5.4848656     -38308.456      90.367662    
  25409000   325.65203     -38690.598      2.7659117     -38291.784     -353.29164    
  25410000   299.23387     -38685.173      4.9075942     -38316.346     -123.59613    
  25411000   311.27951     -38703.002      5.2141319     -38319.219      20.023261    
  25412000   298.48113     -38664.022      6.2677463     -38294.75      -57.873687    
  25413000   293.49292     -38704.238      3.8391207     -38343.461     -244.86679    
  25414000   295.59114     -38672.173      6.0730912     -38306.61      -57.221873    
  25415000   298.32527     -38670.532      2.7177255     -38304.999     -276.21768    
  25416000   306.65465     -38672.335      4.460502      -38294.93      -209.90777    
  25417000   290.73815     -38674.375      2.5049875     -38318.283     -97.020487    
  25418000   279.79688     -38682.65       4.0027503     -38338.366     -28.2873      
  25419000   296.78044     -38666.301      3.7420911     -38301.623      106.03144    
  25420000   281.85049     -38672.371      6.474619      -38323.119      223.8276     
  25421000   316.5376      -38670.251      5.0749843     -38280.212     -80.174374    
  25422000   279.50532     -38685.347      3.4647949     -38341.956     -381.68844    
  25423000   295.47161     -38667.859      5.4923306     -38303.022     -62.989472    
  25424000   277.66724     -38660.578      4.4910661     -38318.396      273.33562    
  25425000   304.69235     -38669.161      4.2772215     -38294.326     -20.267739    
  25426000   289.78775     -38681.449      3.300887      -38325.717     -131.34953    
  25427000   299.01245     -38680.171      6.3432042     -38310.178     -169.407      
  25428000   277.95602     -38720.639      4.7446108     -38377.853     -623.36582    
  25429000   302.73689     -38656.628      3.7875891     -38284.66       25.083449    
  25430000   312.57945     -38690.373      5.143562      -38305.079      38.58317     
  25431000   295.11382     -38657.144      3.3815424     -38294.854     -306.45917    
  25432000   309.51967     -38652.983      3.1676757     -38273.387     -238.11655    
  25433000   293.06436     -38682.998      3.9879056     -38322.594      141.2731     
  25434000   317.82903     -38666.851      6.28486       -38274.032     -43.533676    
  25435000   299.21196     -38683.274      3.0402182     -38316.341     -430.33225    
  25436000   303.62265     -38676.184      4.9068565     -38302.021      337.70251    
  25437000   311.42975     -38664.798      2.5700049     -38283.476      235.91405    
  25438000   294.64901     -38697.419      4.5816246     -38334.493     -413.84783    
  25439000   314.76533     -38691.618      4.4457828     -38304.364      17.289335    
  25440000   307.87668     -38690.433      4.9592329     -38311.043     -91.231134    
  25441000   290.03794     -38690.137      3.2934321     -38334.108      101.7264     
  25442000   316.30909     -38685.298      3.136786      -38297.475     -42.743507    
  25443000   289.50504     -38708.904      4.1358452     -38352.68      -28.871926    
  25444000   286.71056     -38659.502      5.6785032     -38305.135     -143.94432    
  25445000   321.0191      -38680.58       4.8580551     -38285.308     -285.90801    
  25446000   288.39655     -38683.445      5.0608817     -38327.645      107.01211    
  25447000   292.64975     -38638.107      6.3466145     -38275.849     -47.538582    
  25448000   302.36791     -38700.263      5.9860422     -38326.546     -206.13374    
  25449000   324.54615     -38686.457      3.5238774     -38288.229      41.707418    
  25450000   296.76659     -38699.943      5.2870451     -38333.737     -58.757574    
  25451000   293.87415     -38650.768      5.4239617     -38287.943     -319.3585     
  25452000   300.63833     -38682.771      6.0446271     -38311.099      148.60149    
  25453000   293.48351     -38702.501      5.8641121     -38339.711     -291.10382    
  25454000   298.38366     -38694.032      5.0245135     -38326.122     -362.47779    
  25455000   320.20963     -38690.232      4.602411      -38296.201      47.352366    
  25456000   300.54753     -38667.246      4.7207828     -38297.009      101.69444    
  25457000   288.07629     -38678.324      3.895482      -38324.079     -560.72945    
  25458000   309.32649     -38648.153      3.7931641     -38268.166      70.738937    
  25459000   305.63255     -38692.498      4.1431609     -38316.653      334.55279    
  25460000   320.17482     -38688.165      4.2090782     -38294.568      164.32886    
  25461000   296.49527     -38687.314      3.1523015     -38323.573     -470.96724    
  25462000   318.84775     -38687.162      5.1110421     -38294.278     -544.08353    
  25463000   296.78802     -38650.07       5.5102685     -38283.615      382.40454    
  25464000   294.54885     -38682.473      4.8692872     -38319.382      147.73446    
  25465000   320.77721     -38659.664      6.3965621     -38263.148     -225.66824    
  25466000   285.54258     -38682.42       2.5855011     -38332.566     -75.939859    
  25467000   285.56895     -38662.751      3.2072117     -38312.244     -57.804317    
  25468000   307.76011     -38667.335      5.0375053     -38288.008      156.0148     
  25469000   314.67723     -38683.396      4.5969313     -38296.098      138.43926    
  25470000   297.20302     -38672.339      4.758414      -38306.131     -117.66414    
  25471000   282.90103     -38677.288      5.4259438     -38327.806     -562.96714    
  25472000   294.28545     -38673.186      4.3691855     -38310.915     -87.300043    
  25473000   306.92324     -38675.457      3.4460685     -38298.74       344.11802    
  25474000   306.69359     -38699.024      4.0643472     -38321.968     -144.20426    
  25475000   280.72867     -38679.816      4.6717502     -38333.73      -347.85973    
  25476000   291.36818     -38683.662      4.8361909     -38324.472     -396.09757    
  25477000   305.18668     -38681.683      3.6350803     -38306.889      270.22622    
  25478000   310.46096     -38687.43       3.8762592     -38305.98      -123.59371    
  25479000   302.66491     -38655.28       5.4969178     -38281.69      -50.506841    
  25480000   306.87635     -38681.82       4.6385979     -38303.968     -237.7926     
  25481000   314.45757     -38690.236      4.5925111     -38303.21      -53.890462    
  25482000   294.95015     -38654.598      3.7606461     -38292.128      423.60486    
  25483000   274.05042     -38657.039      4.3318995     -38319.416      19.78587     
  25484000   294.06008     -38670.005      6.0833388     -38306.295     -180.37877    
  25485000   309.36453     -38676.559      4.0998327     -38296.219     -189.99497    
  25486000   308.02931     -38700.717      2.4871108     -38323.614     -187.43841    
  25487000   305.45602     -38689.52       4.4582388     -38313.575      35.226267    
  25488000   292.33799     -38664.68       2.1440498     -38307.003     -34.945614    
  25489000   291.31299     -38661.143      4.6319058     -38302.224     -377.70805    
  25490000   296.59305     -38680.586      3.7633003     -38316.115     -122.50045    
  25491000   312.21683     -38656.742      3.9774024     -38273.056     -28.067937    
  25492000   276.81524     -38669.485      3.5189846     -38329.311      81.123394    
  25493000   281.66087     -38677.604      2.6396413     -38332.417     -111.83854    
  25494000   306.86835     -38673.899      6.1595254     -38294.535      56.922264    
  25495000   291.72513     -38679.839      2.4249642     -38322.627      15.632037    
  25496000   295.64265     -38688.704      4.7506245     -38324.401     -129.3409     
  25497000   296.84302     -38656.068      2.7872142     -38292.269      129.14574    
  25498000   283.95494     -38671.477      4.2333705     -38321.906     -320.87741    
  25499000   282.90172     -38670.305      2.8502599     -38323.398      146.34596    
  25500000   311.04593     -38668.931      4.6527491     -38285.994      27.847353    
  25501000   290.8187      -38663.523      3.1771753     -38306.661     -52.107827    
  25502000   278.55376     -38659.113      4.3193074     -38316.025     -359.93954    
  25503000   307.8116      -38673.268      3.6568006     -38295.26      -239.71987    
  25504000   277.84711     -38672.036      2.7811387     -38331.345      103.89172    
  25505000   287.77729     -38676.957      3.8390453     -38323.132      13.878399    
  25506000   273.90972     -38660.235      4.5945105     -38322.52      -95.555099    
  25507000   282.84893     -38646.273      4.5016216     -38297.779     -14.958554    
  25508000   301.81599     -38693.093      2.2068807     -38323.827     -113.23892    
  25509000   287.92262     -38639.987      2.8261589     -38286.998      218.44287    
  25510000   291.73161     -38672.497      4.192501      -38313.509     -282.37832    
  25511000   299.19289     -38683.773      2.586812      -38317.317     -408.89604    
  25512000   291.78348     -38698.146      4.1390979     -38339.149     -292.30466    
  25513000   292.06101     -38670.113      3.7879283     -38311.129      218.49087    
  25514000   324.64812     -38672.573      4.3587698     -38273.387     -325.68832    
  25515000   288.08733     -38684.508      3.6848377     -38330.46      -28.785776    
  25516000   293.89798     -38653.797      5.1731393     -38291.194     -11.440596    
  25517000   301.65576     -38674.965      2.8459954     -38305.254      246.41929    
  25518000   288.36423     -38675.661      4.9536194     -38320.007     -440.15838    
  25519000   298.45687     -38673.323      5.0772426     -38305.271     -271.04917    
  25520000   289.79734     -38671.604      3.6666789     -38315.494      53.472679    
Loop time of 703.232 on 2 procs for 500000 steps with 409 atoms

Performance: 61.431 ns/day, 0.391 hours/ns, 711.003 timesteps/s, 290.800 katom-step/s
96.7% CPU use with 2 MPI tasks x no OpenMP threads

MPI task timing breakdown:
Section |  min time  |  avg time  |  max time  |%varavg| %total
---------------------------------------------------------------
Pair    | 119.18     | 212.03     | 304.87     | 637.6 | 30.15
Bond    | 0.12628    | 0.75181    | 1.3773     |  72.1 |  0.11
Kspace  | 371.3      | 464.25     | 557.2      | 431.4 | 66.02
Neigh   | 4.3873     | 4.4009     | 4.4145     |   0.7 |  0.63
Comm    | 14.068     | 14.268     | 14.468     |   5.3 |  2.03
Output  | 0.031261   | 0.038072   | 0.044882   |   3.5 |  0.01
Modify  | 5.3166     | 6.1273     | 6.938      |  32.8 |  0.87
Other   |            | 1.369      |            |       |  0.19

Nlocal:          204.5 ave         209 max         200 min
Histogram: 1 0 0 0 0 0 0 0 0 1
Nghost:         1107.5 ave        1112 max        1103 min
Histogram: 1 0 0 0 0 0 0 0 0 1
Neighs:          20849 ave       29776 max       11922 min
Histogram: 1 0 0 0 0 0 0 0 0 1

Total # of neighbors = 41698
Ave neighs/atom = 101.9511
Ave special neighs/atom = 0.16136919
Neighbor list builds = 5897
Dangerous builds = 0
Total wall time: 10:03:37
