LAMMPS data file via write_data, version 2 Aug 2023, timestep = 1000000, units = real

1491 atoms
5 atom types
686 bonds
1 bond types
343 angles
1 angle types

-12.120000000000001 12.120000000000001 xlo xhi
-12.120000000000001 12.120000000000001 ylo yhi
-28.28 28.28 zlo zhi

Masses

1 15.9994
2 1.008
3 28.99
4 35.453
5 26.9815

Pair Coeffs # lj/cut/tip4p/long

1 0.185199 3.1589
2 0 0
3 0.0469 2.4299
4 0.15 4.0447
5 11.697 2.574

Bond Coeffs # harmonic

1 0 0.9572

Angle Coeffs # harmonic

1 0 104.52

Atoms # full

478 16 1 -1.1128 -8.789192537980623 -9.755413061633105 -6.603305084477875 0 0 0
86 0 5 0 -10.84841114109378 -10.015902758982183 -8.991248528467333 0 0 0
484 18 1 -1.1128 -6.618942267788647 -8.129114087490994 -6.397795253662072 0 0 0
451 7 1 -1.1128 -10.984234036655096 -8.148703915282034 -6.562220630885155 1 0 0
544 38 1 -1.1128 -8.711793591232004 -5.707791590707732 -6.397812209813007 0 0 0
545 38 2 0.5564 -8.022593407180006 -5.061120511443432 -6.245894672872018 0 0 0
452 7 2 0.5564 -11.47895884154489 -7.343805788557028 -6.7158411516198635 1 0 0
453 7 2 0.5564 -11.647264317936932 -8.838915317095733 -6.547861631038522 1 0 0
480 16 2 0.5564 -9.442198550944664 -9.05586886212902 -6.582598380397675 0 0 0
485 18 2 0.5564 -6.231277213848905 -8.056984505589995 -5.5255793593506874 0 0 0
479 16 2 0.5564 -7.9488612938463765 -9.30118025565047 -6.541826154041301 0 0 0
546 38 2 0.5564 -8.359209780747218 -6.278317049310901 -7.080770200493795 0 0 0
486 18 2 0.5564 -5.948149986533122 -8.565269097845572 -6.9232132412476926 0 0 0
1153 241 1 -1.1128 -6.671523542643515 -3.801813298384985 -6.609023401512327 0 0 0
1045 205 1 -1.1128 -10.935065824162916 -3.875097885657521 -6.797410704660012 0 0 0
1154 241 2 0.5564 -7.349701770824459 -3.1371571635849027 -6.729488834687018 0 0 0
1155 241 2 0.5564 -6.319317019939006 -3.6297913096875023 -5.735750796427552 0 0 0
1047 205 2 0.5564 -10.464141701877711 -4.681057252745209 -6.5854885022682925 0 0 0
1046 205 2 0.5564 -11.264256112826569 -3.560992816716529 -5.955275547054047 0 0 0
291 0 5 0 -8.770482316371682 -3.960049962759637 -9.00466168986711 0 0 0
100 0 5 0 -6.708286609552255 -5.899932972574163 -9.039428217011668 0 0 0
99 0 5 0 -8.766721655875363 -7.9657978880393605 -9.061615337655637 0 0 0
88 0 5 0 -6.762108249100105 -10.112774584773748 -8.952853733257927 0 0 0
98 0 5 0 -10.815391447427722 -5.96596183211515 -9.029509673998145 0 0 0
55 0 5 0 -6.709724213636522 -8.030714916783811 -11.017886314502798 0 0 0
56 0 5 0 -8.787501568439675 -5.962979860379675 -10.990412081693178 0 0 0
219 0 5 0 -10.799207983757945 -3.953941627873391 -11.056478789174616 0 0 0
223 0 5 0 -6.770396758142262 -3.9183952884292066 -11.077290226319324 0 0 0
32 0 5 0 -8.80483691181991 -10.049807874284015 -10.978896985485122 0 0 0
51 0 5 0 -10.803494869213841 -7.962793989191999 -11.008768509899712 0 0 0
30 0 5 0 -6.693049549952703 -9.988773240575204 -13.058883821208733 0 0 0
222 0 5 0 -6.766434512170177 -1.8375884481080813 -13.029335782274169 0 0 0
218 0 5 0 -10.839195271617271 -1.9505164985150283 -13.121457005933399 0 0 0
292 0 5 0 -6.798263819589402 -1.8440897502444797 -9.042896188806264 0 0 0
221 0 5 0 -8.77425254366432 -3.8921450006630507 -13.016558782323804 0 0 0
224 0 5 0 -8.848254850556728 -1.963631825628584 -11.034355778720226 0 0 0
290 0 5 0 -10.84131967411248 -1.917103759474772 -9.087611912747352 0 0 0
50 0 5 0 -10.717247717827284 -5.9663682713770125 -13.087658777316875 0 0 0
54 0 5 0 -6.767782698627658 -6.016677510339114 -13.092416035096553 0 0 0
53 0 5 0 -8.730511610295064 -8.032779810589433 -12.943830841746545 0 0 0
26 0 5 0 -10.701614407679806 -10.052860646737681 -13.020150510441624 0 0 0
36 0 5 0 -4.773404824322148 -10.053793173154427 -11.033707449455628 0 0 0
481 17 1 -1.1128 -4.593099153511867 -10.10216753441125 -6.667424548755724 0 0 0
547 39 1 -1.1128 -4.970760196658427 -6.004327756041645 -6.716775475047499 0 0 0
101 0 5 0 -4.8143422824434765 -8.00707442473733 -8.931822958620755 0 0 0
60 0 5 0 -4.756740284333121 -5.957816994863484 -11.061246088481314 0 0 0
225 0 5 0 -4.781873075039672 -3.8887812608323036 -13.097285259117667 0 0 0
57 0 5 0 -4.691538035025429 -8.009379222920304 -13.036810544393681 0 0 0
1048 206 1 -1.1128 -8.708220399840622 -2.0615612711642526 -6.569121233335085 0 0 0
964 178 1 -1.1128 -4.850819881197845 -1.7562215412760964 -6.647788513277152 0 0 0
228 0 5 0 -4.814377122748078 -1.8253719750217923 -11.052547402683858 0 0 0
293 0 5 0 -4.794832075060108 -3.9290731704289032 -9.082963874654979 0 0 0
1050 206 2 0.5564 -9.611176084956742 -2.2907011541365034 -6.789036706516109 0 0 0
1049 206 2 0.5564 -8.786494352141151 -1.4650222723199944 -5.824645685796274 0 0 0
966 178 2 0.5564 -5.476804031787803 -2.360088666133992 -7.047407198554193 0 0 0
1250 273 2 0.5564 0.1480154542232241 -6.120768958921655 -0.32939087935560096 16 0 0
543 37 2 0.5564 -10.07631628254587 -10.942395167825019 -6.326400857216334 0 0 0
1023 197 2 0.5564 -8.203906306561166 -9.95130244951212 -4.89964105540566 13 1 0
1021 197 1 -1.1128 -7.633141128091061 -10.14122536816339 -4.155081920666946 13 1 0
1176 248 2 0.5564 -5.537451227052909 -7.3091922685303725 -3.191022222376422 13 0 0
1175 248 2 0.5564 -5.183876571775603 -6.394172199699134 -4.3441145309500495 13 0 0
1174 248 1 -1.1128 -5.1355717577844695 -7.306882357146445 -4.0597603186619065 13 0 0
777 115 2 0.5564 -8.652189510660678 -3.6259098685910374 -3.498845405167238 14 1 0
776 115 2 0.5564 -8.805475181142535 -2.1262958924352047 -3.358996593674409 14 1 0
483 17 2 0.5564 -4.754395177015846 -10.642340806631829 -5.893846787157765 0 0 0
615 61 2 0.5564 -5.999763470382885 -4.147273591359385 -3.3637497440198603 14 0 0
613 61 1 -1.1128 -5.518465916810546 -4.118799204384049 -4.1906445711755715 14 0 0
775 115 1 -1.1128 -9.306968124026666 -2.941621138758454 -3.360023196776364 14 1 0
614 61 2 0.5564 -4.696550843024484 -3.6781617484077955 -3.974868301479059 14 0 0
1294 288 1 -1.1128 -5.315764571608675 -10.45558127485118 -1.0329652278847337 14 0 0
710 93 2 0.5564 -6.074483498237133 -11.186471997833346 -4.253035301435324 14 0 0
1022 197 2 0.5564 -7.392086605814706 -9.280800145075057 -3.81185710829929 13 1 0
1313 294 2 0.5564 -2.8166712543499566 -5.841905220321557 -1.415116215183354 14 1 0
701 90 2 0.5564 -7.922985802803665 -5.397740663877945 -1.4592491863622066 13 0 0
582 50 2 0.5564 -7.982502257160321 -10.84837491252915 -2.51008546670292 12 1 0
965 178 2 0.5564 -5.352756672837567 -0.955270440123175 -6.496959174415112 0 0 0
700 90 1 -1.1128 -7.664095553633675 -4.882599426559857 -2.2233355639075816 13 0 0
580 50 1 -1.1128 -7.826662915262258 -11.40988214039445 -1.7507108403450513 12 1 0
1150 240 1 -1.1128 -3.364838794313811 -2.8159222413315264 -0.8523946194701978 13 -1 0
1314 294 2 0.5564 -4.118472095671512 -6.59008994342207 -1.22165481425523 14 1 0
1152 240 2 0.5564 -3.1636703814421856 -3.6513225281649766 -0.4306395260511879 13 -1 0
549 39 2 0.5564 -5.672447111253204 -6.655194929874275 -6.702184879417608 0 0 0
1464 0 3 1.1 -8.411036279777418 -2.8233721753851238 -0.7997300334135402 8 0 0
1187 252 2 0.5564 -10.267724424614638 -7.611435896275441 -2.5799502386301185 15 1 0
1088 219 2 0.5564 -8.032128323559988 -6.7391091141100015 -4.9059471221790965 13 2 0
709 93 1 -1.1128 -5.186634973964549 -11.487061172443223 -4.059207700546724 14 0 0
1089 219 2 0.5564 -8.99866619911437 -7.4549616232821485 -3.9865681785496103 13 2 0
1186 252 1 -1.1128 -10.552359070891498 -7.957843721889673 -3.425661549578383 15 1 0
1087 219 1 -1.1128 -8.096387745116186 -7.1397793310704865 -4.039016512569922 13 2 0
1151 240 2 0.5564 -3.2569274424242933 -2.98727661123555 -1.7879317644159813 13 -1 0
1178 249 2 0.5564 0.035298445208920656 -8.973905212545233 -0.8665297609023914 14 0 0
555 41 2 0.5564 -10.338818935828526 -7.883128450432442 -0.32972759313217176 14 0 0
702 90 2 0.5564 -7.600067781600096 -5.5216244932541985 -2.933112298219619 13 0 0
1478 0 4 -1.1 -9.409095297995595 -0.5872643047223235 -0.43827686984521413 12 0 0
1270 280 1 -1.1128 9.764287589048156 -11.649487957633642 -1.0875404210521284 12 0 0
596 55 2 0.5564 -5.45350463073146 -8.581420126362561 -1.159616718910116 14 0 0
577 49 1 -1.1128 -11.839723569330328 -3.0861448294828016 -4.26961328281532 15 0 0
578 49 2 0.5564 -11.100059397708916 -2.6477888601505386 -3.848898754034682 15 0 0
455 8 2 0.5564 -7.280526534203529 -11.403062269543206 -6.275287947792264 0 0 0
1273 281 1 -1.1128 -6.234865669653643 -2.068903224414754 -2.1426894799110543 13 1 0
595 55 1 -1.1128 -5.86745149089601 -7.724915995030596 -1.2659003182556605 14 0 0
1416 328 2 0.5564 -2.554726404833102 -0.19155402952237882 -4.850246375248077 14 -1 0
553 41 1 -1.1128 -9.824739786561802 -7.286622538804655 -0.8738942777499813 14 0 0
917 162 2 0.5564 8.969592648916034 -4.897268757848478 -0.8004929297570464 13 0 0
463 11 1 -1.1128 5.36160365390198 -11.885258770467745 -6.590321797385155 0 0 0
35 0 5 0 -2.7346086469459374 -11.990904267128967 -10.976214612032916 0 0 0
25 0 5 0 11.495049386617284 -11.980024072583687 -13.114765343471925 -1 0 0
1274 281 2 0.5564 -6.377391964137336 -1.1256120247368533 -2.2208836988500984 13 1 0
89 0 5 0 -4.740028739736437 -12.067261103794898 -9.095228429797782 0 0 0
1275 281 2 0.5564 -5.704485520697506 -2.1667290072575693 -1.3518801523562443 13 1 0
901 157 1 -1.1128 -2.67799504033913 -0.1298630453106748 -6.641993581924016 0 0 0
1295 288 2 0.5564 -6.1232003064729765 -10.814538002375478 -1.400929906319116 14 0 0
597 55 2 0.5564 -6.664701560834611 -7.776597450537735 -0.7387167368837568 14 0 0
942 170 2 0.5564 -11.68682887564369 -4.414625054171078 -1.0851198409331326 12 0 0
1104 224 2 0.5564 3.6367047776617354 -9.687951783408108 -0.2835429006558393 13 0 0
1296 288 2 0.5564 -5.181548625268419 -10.947754066056568 -0.2230337843917951 14 0 0
1188 252 2 0.5564 -11.261081620297476 -7.374774039588658 -3.6975947025106413 15 1 0
29 0 5 0 -8.78448053685408 -12.079817188646638 -12.95447915726438 0 0 0
1202 257 2 0.5564 11.354842563783533 -7.074747559161019 -0.8726493142447499 13 1 0
1160 243 2 0.5564 6.845811775179034 -5.707191205465502 -0.4633012868163822 14 -1 0
863 144 2 0.5564 -11.96429307290223 -9.371422553400308 -3.5153421352693006 15 1 0
468 12 2 0.5564 6.321839446188702 -8.40143517728006 -6.655238994223291 0 0 0
542 37 2 0.5564 -11.549155555437212 -11.241526726809056 -6.508502607928713 0 0 0
1257 275 2 0.5564 -1.566325475839884 -5.169372924838993 -2.887786100026901 12 1 0
1100 223 2 0.5564 -2.790571561686257 -3.423038359414405 -4.509855095317519 14 1 0
1099 223 1 -1.1128 -2.953926098786507 -3.0448938068285667 -3.645817449599985 14 1 0
1312 294 1 -1.1128 -3.5018289122991617 -6.014453736342398 -0.7693257190531712 14 1 0
47 0 5 0 9.388125656165158 -11.994067166871496 -11.031422718139567 0 0 0
627 65 2 0.5564 -2.443480761702593 -8.653703663606668 -2.826164638136239 13 0 0
1101 223 2 0.5564 -2.9398263481820717 -2.0989179793777537 -3.791297627952877 14 1 0
1470 0 3 1.1 -3.4774574073280666 -11.380228316429152 -2.5530538767406483 13 1 0
554 41 2 0.5564 -10.136301018221305 -6.413973948006386 -0.6338197404323861 14 0 0
893 154 2 0.5564 -11.622591835089342 -11.375394344061004 -1.0565743585774543 15 1 0
27 0 5 0 -10.893645592765102 -12.068081297414931 -11.076520795023878 0 0 0
87 0 5 0 -8.910273508938358 -12.085409250583496 -8.921300726567186 0 0 0
1255 275 1 -1.1128 -1.6717199534509148 -6.113892324323267 -2.77372014783209 12 1 0
548 39 2 0.5564 -5.387531073041722 -5.20950524437371 -7.049604022283439 0 0 0
1283 284 2 0.5564 1.8685514896738795 -5.443492583967516 -0.16549791274589876 14 0 0
447 5 2 0.5564 1.9117865644914362 -11.23437689782001 -6.95822204473187 0 0 0
1179 249 2 0.5564 -0.2511601016989053 -10.405830236839618 -0.4672450551330164 14 0 0
735 101 2 0.5564 9.293403406100333 -0.14156118305519969 -4.569826436960103 12 -1 0
1256 275 2 0.5564 -1.0879935167444885 -6.334567788688691 -2.0478966591175967 12 1 0
482 17 2 0.5564 -3.9673230478345993 -9.440788914729024 -6.372060000244915 0 0 0
832 134 1 -1.1128 -1.87081940320055 -11.807463386038485 -4.069843326098669 13 1 0
625 65 1 -1.1128 -3.2954027549462768 -9.075311202672982 -2.939041543246097 13 0 0
626 65 2 0.5564 -3.814282498877372 -8.439704257817798 -3.4319709457075533 13 0 0
1206 258 2 0.5564 0.9141570249824558 -1.2408494986912626 -3.935149487830974 15 0 0
909 159 2 0.5564 2.0260985140023786 -0.5082260834602551 -6.341808113037028 0 0 0
834 134 2 0.5564 -0.94902152749949 -11.609269509527493 -3.904685733740828 13 1 0
1038 202 2 0.5564 -1.829356620427913 -1.8547357864891807 -1.4367198508094157 13 1 0
527 32 2 0.5564 -3.227755251592861 -11.41858940809211 -6.854872132039584 0 0 0
1204 258 1 -1.1128 0.22618881345433928 -1.9055468540819642 -3.9014344840020723 15 0 0
1249 273 1 -1.1128 -0.3733071874948831 -6.899168645060808 -0.5257780989368946 16 0 0
1282 284 1 -1.1128 1.2071544579940112 -4.842649583440289 -0.5087167266385557 14 0 0
1066 212 1 -1.1128 -0.42579779415837204 -8.612916811156728 -3.402329772268578 14 1 0
1068 212 2 0.5564 -0.579745516888819 -7.676064964837129 -3.280531618063958 14 1 0
1067 212 2 0.5564 -0.398712908645079 -8.730212681492896 -4.351930355692627 14 1 0
600 56 2 0.5564 2.187981067767578 -9.115199490527736 -3.875093531747631 14 -1 0
1284 284 2 0.5564 1.6669230363672918 -4.3371785293971845 -1.1790611285889012 14 0 0
591 53 2 0.5564 1.9603616885694242 -6.256521492893991 -3.57007941773264 14 0 0
589 53 1 -1.1128 2.444912311076251 -7.039555613676183 -3.8313865859065186 14 0 0
590 53 2 0.5564 2.4519259334949157 -7.009331862327101 -4.788084048792646 14 0 0
592 54 1 -1.1128 1.600817135302065 -4.341356977854984 -4.023845651683894 14 -1 0
593 54 2 0.5564 0.8521679619949916 -3.805042854570707 -3.762895608931049 14 -1 0
594 54 2 0.5564 2.3608714967416695 -3.8833071630010934 -3.6649997654264905 14 -1 0
1254 274 2 0.5564 4.236643935726686 -2.656482159259281 -1.6049111711122561 13 2 0
1253 274 2 0.5564 4.547449212022097 -3.754804824619851 -2.5993881260766414 13 2 0
887 152 2 0.5564 -1.1615987948263764 -1.3678454657203132 -6.653824656311952 0 0 0
62 0 5 0 1.1921503096691124 -6.01426673918248 -13.064514447345791 0 0 0
294 0 5 0 -2.779265120720232 -1.9556574894517667 -8.994693662218905 0 0 0
64 0 5 0 -0.8513198030857816 -5.884655984170357 -11.0946116773825 0 0 0
59 0 5 0 -2.7741846818128058 -8.001080025542576 -10.985941219866861 0 0 0
232 0 5 0 -0.7535784931595599 -1.9183124993304115 -10.990357430108872 0 0 0
885 151 2 0.5564 -2.3044269871979877 -3.2203293680576572 -6.674517397508789 0 0 0
889 153 1 -1.1128 1.2683577265356216 -4.0001317031889965 -6.692545920090483 0 0 0
883 151 1 -1.1128 -2.966625803145031 -3.899562503518015 -6.546481036578734 0 0 0
884 151 2 0.5564 -3.798583253784375 -3.4595653814193725 -6.720980012062199 0 0 0
1058 209 2 0.5564 2.288043241517697 -8.699701736352212 -6.627078369555053 0 0 0
530 33 2 0.5564 -1.3097531719786621 -9.399718635715132 -6.468757514629108 0 0 0
969 179 2 0.5564 -2.0157495398856518 -7.450255408355519 -6.69171922785028 0 0 0
531 33 2 0.5564 0.19512508401892156 -9.299009341812893 -6.599503120377457 0 0 0
551 40 2 0.5564 -1.559637057205292 -5.480006341548868 -6.605212650688576 0 0 0
968 179 2 0.5564 -3.5008783717060945 -7.412582076551455 -6.400397945344105 0 0 0
967 179 1 -1.1128 -2.799209921837312 -8.000106046020548 -6.680901932086361 0 0 0
529 33 1 -1.1128 -0.5039719683563678 -9.901343542207474 -6.345108689819178 0 0 0
550 40 1 -1.1128 -0.6987107925104692 -5.879785104540544 -6.481999614109448 0 0 0
1059 209 2 0.5564 1.6398838240506397 -7.377935510906325 -6.980232065486208 0 0 0
1057 209 1 -1.1128 1.4764096486110758 -8.202976514953221 -6.52326166635572 0 0 0
890 153 2 0.5564 0.6485331745661191 -3.270919470520836 -6.675965249121483 0 0 0
552 40 2 0.5564 -0.07842302739335484 -5.198990516375912 -6.742805038260635 0 0 0
295 0 5 0 -0.7841842060798966 -3.918614430184148 -9.049835326551747 0 0 0
891 153 2 0.5564 1.308074273867753 -4.302041388023823 -5.7850732814389145 0 0 0
102 0 5 0 -2.791085798312095 -5.929472072715622 -8.96761169789467 0 0 0
104 0 5 0 1.245746431724019 -5.897549930658716 -9.072072516576267 0 0 0
103 0 5 0 -0.7399930537784253 -7.99203104150651 -8.931622521066767 0 0 0
90 0 5 0 -2.73836357907946 -10.0350195548723 -8.925238755055172 0 0 0
92 0 5 0 1.3262944971112192 -10.119236908244982 -8.913090375095406 0 0 0
63 0 5 0 1.2210054778885713 -8.018232439380872 -10.991463768508522 0 0 0
34 0 5 0 -2.790978027329362 -10.062649085288433 -13.103134681453568 0 0 0
227 0 5 0 -2.7771704354904205 -3.8156320285295924 -11.092625022467232 0 0 0
231 0 5 0 1.2831718330449717 -3.9294165733729365 -11.014775280687877 0 0 0
40 0 5 0 -0.7701570998914649 -10.013876914297878 -10.958124880197682 0 0 0
296 0 5 0 1.2413976067609773 -1.8536205274665858 -8.917811526782758 0 0 0
886 152 1 -1.1128 -0.84176405276156 -2.2496788055766888 -6.46331135540398 0 0 0
888 152 2 0.5564 -0.5563400339969302 -2.2094580428065123 -5.550536455238046 0 0 0
38 0 5 0 1.2924480708929713 -10.008021954897853 -13.081155975833763 0 0 0
58 0 5 0 -2.790618846156034 -5.903962896919319 -13.04879925807559 0 0 0
230 0 5 0 1.238210109838041 -1.930820277820659 -13.086002412740187 0 0 0
61 0 5 0 -0.7793067839946761 -8.004467202995894 -13.072909160217636 0 0 0
226 0 5 0 -2.783115979559084 -1.9216935324239306 -13.07081712731208 0 0 0
229 0 5 0 -0.7716032801201232 -3.9266320816255824 -13.095859780455765 0 0 0
65 0 5 0 3.3267970653586096 -8.032052164361728 -13.076201446396228 0 0 0
297 0 5 0 3.3545534750847925 -3.9996909357112105 -9.006855924131449 0 0 0
233 0 5 0 3.2147008997707966 -3.9849531305089108 -13.095071115127105 0 0 0
236 0 5 0 3.309716311958422 -1.9435446125848168 -10.99108872259132 0 0 0
44 0 5 0 3.3038396287318155 -10.094642054935525 -11.048194415062571 0 0 0
68 0 5 0 3.268161445139131 -6.003347110155676 -11.061913732334446 0 0 0
472 14 1 -1.1128 3.5103003025893824 -9.939294001210067 -6.592377027352473 0 0 0
105 0 5 0 3.2347325955070776 -8.06563098570579 -9.015598037801157 0 0 0
1315 295 1 -1.1128 3.233065581706484 -2.1483556375493587 -6.436223930854539 0 0 0
487 19 1 -1.1128 3.37462448672505 -5.789291554597202 -6.706996516576702 0 0 0
446 5 2 0.5564 0.5790809753550742 -11.138514408525237 -6.246462060541185 0 0 0
1252 274 1 -1.1128 3.8319635452319756 -3.208405742561339 -2.2741370460637995 13 2 0
599 56 2 0.5564 1.9707491377320703 -10.613326662431355 -3.85717758101637 14 -1 0
598 56 1 -1.1128 2.6530730465027954 -9.948456097083614 -3.9498428350946524 14 -1 0
1316 295 2 0.5564 2.4766348217284313 -2.60704487656624 -6.801764738403809 0 0 0
474 14 2 0.5564 3.2583736174383713 -9.999692114428749 -5.670906989423576 0 0 0
1288 286 1 -1.1128 0.5877426377796638 -11.637066140492877 -2.8876245297087912 13 1 0
489 19 2 0.5564 2.627776552646172 -5.195946864097422 -6.786766349643128 0 0 0
1205 258 2 0.5564 -0.4579904123205301 -1.5154165539534044 -3.35746422281663 15 0 0
1290 286 2 0.5564 0.4443297339364048 -10.794445222855545 -2.4567528497495266 13 1 0
869 146 2 0.5564 4.139649148750047 -11.243034232771345 -1.7966875755334215 13 0 0
91 0 5 0 -0.723384970043135 -11.980007217535144 -8.921935601502696 0 0 0
45 0 5 0 7.325233645303227 -12.030086004432986 -12.960842063396042 0 0 0
848 139 2 0.5564 3.7821530144143147 -7.815015998769323 -2.8346228167462337 14 -1 0
473 14 2 0.5564 4.277626209952257 -9.36704513702918 -6.594366164174546 0 0 0
849 139 2 0.5564 4.400129630439779 -7.279677123059984 -1.5604912655986338 14 -1 0
488 19 2 0.5564 4.139329995911064 -5.213548520505326 -6.704354392914707 0 0 0
833 134 2 0.5564 -1.9543773599397654 -11.78345343172567 -5.023085611433905 13 1 0
1037 202 2 0.5564 -0.4301987784330624 -1.7707313273209198 -0.864709762683515 13 1 0
1414 328 1 -1.1128 -2.57927982201103 -0.16949913243466203 -3.8936150313651927 14 -1 0
1016 195 2 0.5564 5.203048173125734 -0.49424860075919913 -5.5174526675526785 0 0 0
1317 295 2 0.5564 3.9715643117381387 -2.7349310112913594 -6.599957447686636 0 0 0
1036 202 1 -1.1128 -0.9872438804709504 -1.4160801206612534 -1.557657820718967 13 1 0
1468 0 3 1.1 9.559041827171637 -0.2751113883960604 -0.14833711725008714 12 0 0
1177 249 1 -1.1128 0.44115918515252367 -9.744852660518978 -0.47013015580910245 14 0 0
69 0 5 0 7.31041428104774 -8.054366687436389 -13.064962591982265 0 0 0
93 0 5 0 3.2807935652804416 -12.05039293822111 -9.06179963895588 0 0 0
1201 257 1 -1.1128 10.919964311901918 -6.779574820163584 -1.6726511203615189 13 1 0
39 0 5 0 1.2340013657044258 -12.020771587851304 -11.029139444895218 0 0 0
33 0 5 0 -4.769965696988062 -12.05825309221368 -12.997338365800022 0 0 0
41 0 5 0 3.2540127873072486 -12.04275296149031 -13.071552262024309 0 0 0
1203 257 2 0.5564 10.338890678722992 -7.502063270018946 -1.910502184527082 13 1 0
541 37 1 -1.1128 -10.721894462439668 -11.644417255507216 -6.244841546702674 0 0 0
962 177 2 0.5564 11.319873354206136 -5.048029126414261 -7.009072850886431 -1 0 0
470 13 2 0.5564 7.959096868936886 -6.617792371042415 -6.682867081593872 0 0 0
914 161 2 0.5564 8.014401198330324 -1.150902839907143 -6.716902086467584 0 0 0
458 9 2 0.5564 10.710034147019892 -10.731943893807548 -6.700105163615754 -1 0 0
940 170 1 -1.1128 11.67149515825632 -4.230243152667382 -1.4090318458515323 11 0 0
31 0 5 0 -6.890003883334141 -12.109641984162192 -10.95803482326029 0 0 0
629 66 2 0.5564 4.679644968941601 -1.8081091128905387 -3.5149768392835647 12 -1 0
630 66 2 0.5564 6.112681632722445 -1.8913810189413764 -3.9959828824482697 12 -1 0
298 0 5 0 5.404564170129778 -2.020133951291612 -8.97185039143697 0 0 0
445 5 1 -1.1128 1.3287631697907514 -11.719718314719085 -6.374457272990764 0 0 0
477 15 2 0.5564 7.145743336852864 -10.446035474406804 -5.73563015922978 -1 0 0
847 139 1 -1.1128 4.553412357605249 -7.89905950872055 -2.2740008685005826 14 -1 0
870 146 2 0.5564 4.704175224233128 -9.839581163839659 -1.8560868002209752 13 0 0
46 0 5 0 9.457124866791538 -10.004867630584771 -13.083788350965571 0 0 0
1097 222 2 0.5564 11.98940301108523 -5.891288572084338 -4.991160020228488 13 0 0
829 133 1 -1.1128 7.982420715960653 -2.944811167827382 -3.771779602292152 14 -1 0
579 49 2 0.5564 -11.821426911043975 -3.976891834786178 -3.9196594433123537 15 0 0
984 184 2 0.5564 11.751438713580598 -1.5830373178095098 -7.1631839233843575 -1 0 0
830 133 2 0.5564 8.501426655194633 -2.141578168283219 -3.813056126477368 14 -1 0
459 9 2 0.5564 11.346366395922512 -10.121411329570103 -5.469566222727909 -1 0 0
941 170 2 0.5564 11.36837010464728 -5.06426245305713 -1.7678462691226238 11 0 0
466 12 1 -1.1128 5.458754874825676 -7.987572970548597 -6.66350064326819 0 0 0
902 157 2 0.5564 -3.3719034380764374 -0.7874368636378493 -6.689872450341864 0 0 0
1136 235 2 0.5564 5.92690635864736 -11.805669826914533 -0.656794536189938 13 1 0
106 0 5 0 5.327381448058566 -6.023051640025673 -9.09976726799659 0 0 0
745 105 1 -1.1128 6.624321478221794 -7.123532605663557 -3.7977923297167173 14 0 0
435 1 2 0.5564 8.525343585171925 -8.680472839206772 -6.405444284466393 -1 0 0
234 0 5 0 5.332839477768162 -1.9396623137981484 -13.058984188285542 0 0 0
1489 0 4 -1.1 -2.066630075740747 -11.470298837947462 -0.5790925960941107 14 1 0
1096 222 1 -1.1128 -11.970073292892693 -5.769076255191203 -4.084190722582729 14 0 0
713 94 2 0.5564 10.817447309614261 -1.283501079757856 -2.551230057030217 12 0 0
237 0 5 0 7.331415350619708 -3.990438770950098 -13.07713863231905 0 0 0
628 66 1 -1.1128 5.397194391682193 -1.2719324745921041 -3.852380920787244 12 -1 0
52 0 5 0 11.377394865343971 -6.009413678339285 -11.024877748045357 -1 0 0
624 64 2 0.5564 5.7336575133879055 -5.33923453867721 -3.604980607066991 11 0 0
622 64 1 -1.1128 5.6343925067871545 -4.453591346485688 -3.9542935203851943 11 0 0
623 64 2 0.5564 6.528584244937284 -4.117002823388965 -4.0125800954376 11 0 0
433 1 1 -1.1128 9.192325079440787 -8.00872176705003 -6.547187196857988 -1 0 0
1098 222 2 0.5564 11.479894389655179 -5.922153843797982 -3.5659075755821137 13 0 0
70 0 5 0 9.290904815586341 -6.014193251743972 -13.089460229277776 0 0 0
491 20 2 0.5564 5.929591393588575 -4.585541421980312 -7.015601138661551 0 0 0
983 184 2 0.5564 11.662096958546314 -1.9978446537003531 -5.709963702906202 -1 0 0
1017 195 2 0.5564 4.381985494119735 -0.6708790648080121 -6.777036598186897 0 0 0
96 0 5 0 9.290525088028204 -10.003124341275532 -8.96874975356523 0 0 0
831 133 2 0.5564 8.621020224069472 -3.649121312300688 -3.8831133928946406 14 -1 0
464 11 2 0.5564 6.010351862363956 -11.307554197011644 -6.992366312146863 0 0 0
733 101 1 -1.1128 9.435773061351007 -0.6159976841006566 -3.7507617385278706 12 -1 0
982 184 1 -1.1128 11.135212949914129 -1.9007452212001064 -6.5031964023113416 -1 0 0
492 20 2 0.5564 5.616490736135596 -4.035293590709602 -5.640431857681402 0 0 0
457 9 1 -1.1128 11.280958298503316 -10.017013048794777 -6.418806565597536 -1 0 0
747 105 2 0.5564 6.064044903952139 -7.382726639800009 -4.529311246574448 14 0 0
1412 327 2 0.5564 9.085344460698495 -9.66947352674743 -1.736529342078233 12 1 0
475 15 1 -1.1128 7.397229476059532 -10.181177961641689 -6.620405367424388 -1 0 0
495 21 2 0.5564 9.860740898707267 -3.114316543290353 -6.223887626769837 0 0 0
220 0 5 0 11.377197004875098 -1.9188637459273206 -11.0713675783861 -1 0 0
494 21 2 0.5564 8.391589278112589 -3.3396367490515018 -6.511497641135281 0 0 0
300 0 5 0 9.332145723064603 -1.9650200373934033 -9.02499450746689 0 0 0
299 0 5 0 7.4672146132796104 -3.995588527831319 -8.997368902794852 0 0 0
240 0 5 0 7.371919790605017 -1.9655657967854443 -11.110069228526957 0 0 0
467 12 2 0.5564 5.5773013930539825 -7.195818292288409 -7.188198437506061 0 0 0
913 161 1 -1.1128 7.354116227212615 -1.8400475353833121 -6.790123735890832 0 0 0
490 20 1 -1.1128 5.367739552640488 -3.9575707658955053 -6.561476648996438 0 0 0
72 0 5 0 7.327911559184349 -5.976721152290829 -11.100846209267498 0 0 0
916 162 1 -1.1128 8.23715015306388 -4.773211455150615 -1.4041476094231393 13 0 0
94 0 5 0 5.32925216052933 -10.036133554058244 -9.053230672320169 0 0 0
238 0 5 0 9.26857801605196 -1.9078908732204776 -13.117433643595177 0 0 0
67 0 5 0 5.277785419528191 -8.07286178961865 -11.003511578967016 0 0 0
1413 327 2 0.5564 10.211730399993632 -9.490272598775935 -2.7320369654473438 12 1 0
48 0 5 0 7.325190258616151 -10.00351156387266 -11.09700684273822 0 0 0
1331 300 2 0.5564 7.481610018953236 -1.5717057248705384 -1.8791109595742965 12 0 0
434 1 2 0.5564 10.022669071846828 -8.48357357011176 -6.510997463249499 -1 0 0
918 162 2 0.5564 8.58471701455741 -5.028242404732532 -2.2587837509177917 13 0 0
1411 327 1 -1.1128 9.503090636667391 -9.015835800745574 -2.2972978935045765 12 1 0
28 0 5 0 11.323499422697541 -10.074898306860463 -11.007206961074232 -1 0 0
49 0 5 0 11.517162061012774 -8.033302928768174 -13.082732532553639 -1 0 0
714 94 2 0.5564 11.191937640789835 -2.347400509603558 -1.5413936683544012 12 0 0
71 0 5 0 9.407817380574112 -7.991731228089418 -11.046940597500704 0 0 0
746 105 2 0.5564 6.3007268066651445 -7.633503765166845 -3.0552052504431577 14 0 0
915 161 2 0.5564 6.519011384749251 -1.384567051461775 -6.683646936395569 0 0 0
762 110 2 0.5564 7.8511877397264085 -9.9506369398301 -3.515376685042832 13 -1 0
868 146 1 -1.1128 4.8461391693204305 -10.696160243069397 -1.4531655698573862 13 0 0
1142 237 2 0.5564 9.504063843833201 -4.99692479230387 -4.989670664582068 12 -1 0
963 177 2 0.5564 10.608653210902638 -6.32496212350663 -6.614734650418927 -1 0 0
862 144 1 -1.1128 11.628549677711879 -10.06180288005132 -3.659632423397532 14 1 0
465 11 2 0.5564 4.55841855831322 -11.36508993067918 -6.567544527032431 0 0 0
558 42 2 0.5564 10.10411720141691 -0.5156157359476943 -6.3577452885132155 0 0 0
864 144 2 0.5564 -12.094939071636599 -10.865058154470335 -3.724816633814145 15 1 0
961 177 1 -1.1128 11.478341799546426 -5.928990326373364 -6.6699248774473014 -1 0 0
760 110 1 -1.1128 7.039500872905336 -10.408231128227092 -3.7345464120995993 13 -1 0
471 13 2 0.5564 8.130786240428174 -5.114171893618045 -6.722149866515541 0 0 0
108 0 5 0 9.377085579169393 -6.028275267559847 -9.041634235447555 0 0 0
107 0 5 0 7.341477045622349 -8.00905660057863 -9.133844768546878 0 0 0
42 0 5 0 5.281569751380038 -10.046503717365951 -13.08995620314831 0 0 0
476 15 2 0.5564 8.090493929858123 -10.793684608250523 -6.866329425533316 -1 0 0
1332 300 2 0.5564 7.942479017026799 -2.7656928357372186 -1.0704761160186123 12 0 0
1141 237 1 -1.1128 9.195835432216528 -5.325193424215534 -4.144993430751922 12 -1 0
235 0 5 0 5.305275971808432 -3.9895343296808043 -11.046019488490481 0 0 0
469 13 1 -1.1128 7.463151704208707 -5.800114946807319 -6.724022683705606 0 0 0
1330 300 1 -1.1128 7.9043656429070195 -1.809394684000045 -1.0538846602222196 12 0 0
761 110 2 0.5564 6.506300315761135 -10.343918034189862 -2.942225446522722 13 -1 0
289 0 5 0 11.340104963761059 -3.912393821261704 -9.01733671122765 -1 0 0
493 21 1 -1.1128 9.221942327146769 -3.803757823055674 -6.405171406476261 0 0 0
239 0 5 0 9.377405183924223 -3.9441879832012035 -11.034835375933815 0 0 0
217 0 5 0 11.330747787374463 -3.9698857900847493 -13.094087080155326 -1 0 0
1143 237 2 0.5564 8.549750188261724 -5.994945766634363 -4.369077891704413 12 -1 0
97 0 5 0 11.415710874508717 -8.077809362414001 -9.02679983050508 -1 0 0
712 94 1 -1.1128 11.127853870269218 -1.3989079226096104 -1.6531495818427027 12 0 0
66 0 5 0 5.366670839224189 -6.042701065719765 -13.089468147204444 0 0 0
1015 195 1 -1.1128 5.101673324326696 -0.15880854502961841 -6.408204496039849 0 0 0
85 0 5 0 11.364614434231981 -12.095410082148373 -9.051151191862196 -1 0 0
37 0 5 0 -0.7247022430578633 -12.00554338626567 -13.037678728295605 0 0 0
43 0 5 0 5.34081125347414 -12.022472378880567 -11.099376453389532 0 0 0
1063 211 1 -1.1128 -10.84782190691085 -12.05639798315901 -3.344213863497366 13 1 0
897 155 2 0.5564 -11.099797445367788 -0.22135854305413857 -5.78788381887266 0 0 0
517 29 1 -1.1128 9.469920087486026 -12.040626208179994 -6.362621856022672 -1 0 0
900 156 2 0.5564 -7.138069120357123 -0.03257728514523248 -5.667092614235215 0 0 0
660 76 2 0.5564 7.060482033881065 -8.049854031243681 -0.2781051043703359 13 0 0
1159 243 1 -1.1128 6.231526518521512 -6.284227305470921 -0.009495387907657886 14 -1 0