LAMMPS data file via write_data, version 29 Sep 2021, timestep = 25000

1386 atoms
7 atom types
924 bonds
6 bond types
462 angles
9 angle types
0 dihedrals
14 dihedral types

-23.172489110684854 23.172489110684854 xlo xhi
-8.689683416506773 8.689683416506773 ylo yhi
-8.689683416506773 8.689683416506773 zlo zhi

Masses

1 15.9994
2 1.008
3 12.011
4 15.9994
5 1.008
6 15.9994
7 1.008

Pair Coeffs # lj/cut/tip4p/long

1 0.185199 3.1589
2 0 0
3 0.056 3.58141
4 0.1 2.93997
5 0.035 2.38761
6 0.192 3.14487
7 0.046 0.40001

Bond Coeffs # harmonic

1 0 0.9572
2 222.35 1.53
3 308.79 1.1111
4 359.76 1.1415
5 427.715 1.142
6 544.635 0.96

Angle Coeffs # charmm

1 0 104.52 0 0
2 50 109 0 0
3 26.5 110.1 22.53 2.179
4 45 111.5 0 0
5 13.0258 109.4 0 0
6 35.5 109 5.4 1.802
7 55 108.89 0 0
8 75.7 110.1 0 0
9 95 109.7 0 0

Dihedral Coeffs # charmm

1 0.57 1 0 0
2 0.29 2 0 0
3 0.43 3 0 0
4 0.59 1 180 0
5 1.16 2 0 0
6 0.12 1 0 0
7 0.42 2 0 0
8 0.29 3 0 0
9 2.87 1 180 0
10 0.03 2 0 0
11 0.23 3 0 0
12 1.36 1 180 0
13 0.16 2 0 0
14 1.01 3 0 0

Atoms # full

470 157 2 0.527 -22.20798148559973 -0.5748863962635742 -4.846935055191723 0 0 0
377 126 2 0.527 -15.47295897967254 -0.31292147794641956 -3.4042879736567198 0 0 0
1680 560 2 0.527 -16.35797508145717 -2.6356353237581187 -5.883719377147049 1 0 0
1678 560 1 -1.054 -16.434736100233703 -2.164927085306621 -6.713676708431699 1 0 0
1679 560 2 0.527 -16.133067066362166 -1.278343954446278 -6.515551037125059 1 0 0
893 298 2 0.527 -14.639846995825057 -2.164306555555772 -1.5632929319834306 0 0 0
551 184 2 0.527 -13.111418359863126 -2.1395061284049266 -3.21078168393111 0 0 0
894 298 2 0.527 -15.45335265807207 -2.4112348659175833 -2.815997857657595 0 0 0
170 57 2 0.527 -13.95015063674335 -7.347567463465753 -2.417321541772706 0 0 0
881 294 2 0.527 -19.94027615222171 -2.5257974494649194 -0.508793847166217 0 0 0
849 283 2 0.527 -14.494405405196312 -4.912447713173469 -6.6446718228171715 0 0 1
301 101 1 -1.054 -20.947197938659073 -5.518468826909467 -7.7897146633775805 0 1 0
534 178 2 0.527 -16.613414247180586 -3.9816928952034942 -3.801711459594343 0 0 1
532 178 1 -1.054 -15.90086213869594 -3.7504476650568366 -4.397599705227886 0 0 1
533 178 2 0.527 -15.116657146936308 -4.114274714639087 -3.9865765405428366 0 0 1
847 283 1 -1.054 -15.06982212207421 -5.585369077510647 -7.008485145056722 0 0 1
848 283 2 0.527 -14.52395662726871 -6.050921371136968 -7.642188370540395 0 0 1
500 167 2 0.527 -14.520556699817643 -4.667351756606226 -2.3721953591725375 0 0 1
664 222 1 -1.054 -20.7465097400905 -5.422849859414201 -3.306363094372201 0 1 1
302 101 2 0.527 -20.350333659923404 -6.006549217920681 -7.222424482609159 0 1 0
665 222 2 0.527 -20.51602157486216 -5.744837626865927 -4.177848472278433 0 1 1
303 101 2 0.527 -20.387974288960525 -5.17229761823279 -8.485215949805342 0 1 0
169 57 1 -1.054 -13.20651689393892 -7.396292008855408 -3.018089777934038 0 0 0
396 132 2 0.527 -16.91902819639195 -5.059017271839036 -6.364131914395449 0 1 1
499 167 1 -1.054 -13.701359772037678 -4.6117402296212 -2.864243553595063 0 0 1
1926 642 2 0.527 -18.51891878402095 -2.245357689273054 -3.5428774940671435 1 0 0
501 167 2 0.527 -13.461316280069012 -5.522619965389592 -3.034434638388734 0 0 1
1924 642 1 -1.054 -18.2309378039201 -1.654192851556025 -4.23849152715128 1 0 0
232 78 1 -1.054 -19.407930578586093 -1.7147563906729655 -7.130190820173621 0 0 0
234 78 2 0.527 -19.30382056801706 -1.9967386512268028 -6.2213813659666055 0 0 0
394 132 1 -1.054 -17.781615092823728 -4.761176453592202 -6.653134234059176 0 1 1
921 307 2 0.527 -21.093801364034103 -2.622666309958528 -7.552980486795478 0 0 0
238 80 1 -1.054 -12.97758687814312 -3.6584782501446202 -6.910455166196189 0 0 0
666 222 2 0.527 -21.094881626734914 -6.189712633557015 -2.851559638195303 0 1 1
1457 486 2 0.527 -19.099585437421606 -4.496112359954126 -2.746621944401501 0 0 1
1458 486 2 0.527 -18.223209674743387 -4.398598064746075 -1.51597531395916 0 0 1
931 311 1 -1.054 -14.716767561527195 -7.976956871375752 -5.639303523131277 0 1 1
933 311 2 0.527 -15.135615275594816 -7.15996999563059 -5.910203337554014 0 1 1
1456 486 1 -1.054 -18.183772577682934 -4.460492293705946 -2.470386846770398 0 0 1
919 307 1 -1.054 -22.046485933171645 -2.625406749479562 -7.6461048385547405 0 0 0
942 314 2 0.527 -19.35077755621334 -7.776352855664033 -5.733337379457273 0 1 1
395 132 2 0.527 -17.702345795506503 -3.8085319819812264 -6.702856707021941 0 1 1
233 78 2 0.527 -18.595779940979597 -1.2499355924807087 -7.3317856903795535 0 0 0
920 307 2 0.527 -22.332877930314787 -3.39893999375201 -7.160395609667333 0 0 0
1925 642 2 0.527 -17.686358870466336 -1.0057102892061431 -3.7921826811589225 1 0 0
940 314 1 -1.054 -19.64099063658515 -6.864311690644571 -5.717687753937415 0 1 1
1002 334 2 0.527 -18.270475656203946 -7.791874009872574 -3.0724225862036585 0 1 1
1000 334 1 -1.054 -17.65634561644013 -7.1732837753725915 -3.4679956731871346 0 1 1
1001 334 2 0.527 -18.075220102104243 -6.318982268706529 -3.363111221773652 0 1 1
2018 673 2 0.527 -22.24618724990499 -5.9976755614632715 -6.418217499245061 1 1 0
334 112 1 -1.054 -15.914159184727964 -6.98709489174866 -1.5307814316795314 0 1 0
335 112 2 0.527 -16.596774200364077 -7.074526417231812 -2.1961238054030607 0 1 0
336 112 2 0.527 -16.255297876265903 -6.3323043995579935 -0.9215511698591072 0 1 0
941 314 2 0.527 -18.984606932704345 -6.394731841735656 -6.23241377926419 0 1 1
23 8 2 0.527 -22.956173368138924 -5.0134105925260535 -3.297387523350718 0 0 0
892 298 1 -1.054 -14.93627248324779 -1.7410379713940811 -2.3690618917582995 0 0 0
239 80 2 0.527 -12.726194030511898 -3.08564754128719 -7.63499245566645 0 0 0
550 184 1 -1.054 -12.372977588934962 -1.898283030964694 -3.770070723318544 0 0 0
771 257 2 0.527 -21.226539238707687 -1.8187090286236405 -2.8308561875831453 0 0 0
769 257 1 -1.054 -20.677096027191237 -1.9203470285954705 -2.0536371250028864 0 0 0
2017 673 1 -1.054 -22.8324432376524 -6.541331634844083 -5.891881383701228 1 1 0
478 160 1 -1.054 -22.15384571685679 -7.663949990323275 -1.8637913795262468 0 0 0
1823 608 2 0.527 -15.575774596446102 -8.54088116005865 -0.2821229218948371 1 1 -1
479 160 2 0.527 -22.922436978092847 -8.082777598238787 -2.2512684084560775 0 0 0
480 160 2 0.527 -21.489330054567272 -8.352671616299425 -1.8445789493716562 0 0 0
171 57 2 0.527 -12.711162617376047 -8.161262395769215 -2.7252891640510155 0 0 0
471 157 2 0.527 -22.939058673669134 -1.8926410989434466 -4.701733313213589 0 0 0
947 316 2 0.527 -22.13787608895259 -8.282926146968261 -5.129933108686818 0 1 0
240 80 2 0.527 -12.15556484975672 -4.054813659729115 -6.621516171257137 0 0 0
206 69 2 0.527 -16.18258456669351 -3.150433846755054 -8.435093561183079 0 0 1
34 12 1 -1.054 -14.493335407929962 -3.370742097497546 -0.2530123321250102 0 0 0
468 156 2 0.527 -13.55746764194063 -8.10846786846474 -8.524490723129764 0 0 1
117 39 2 0.527 -11.723667776874981 -0.13582358044339138 -2.6001830862754387 0 0 0
770 257 2 0.527 -20.545841404498546 -1.027621890946059 -1.7341036918293211 0 0 0
552 184 2 0.527 -12.35077502829169 -2.577325414437327 -4.444382343898166 0 0 0
469 157 1 -1.054 -22.352983202747247 -1.296707399200912 -4.235186253961484 0 0 0
932 311 2 0.527 -14.146879426832701 -7.725029773799163 -4.9126344709481575 0 1 1
774 258 2 0.527 -11.724522750412625 -0.6108669667928286 -4.907211263829302 0 0 0
1833 611 2 0.527 -22.35380939369077 -0.5312741633858966 -8.471589498949848 1 -1 0
426 142 2 0.527 -12.136064276173203 -5.649096387765388 -0.20810812797760825 0 1 1
839 280 2 0.527 -12.070608631456755 -4.436735377525092 -1.8860226285140742 0 0 1
286 96 1 -1.054 -23.043124679835834 3.3411276208980443 -6.759408851187702 0 0 0
376 126 1 -1.054 -15.748446429579111 0.5252197073316918 -3.7756553672197155 0 0 0
378 126 2 0.527 -15.602158964438523 0.430358561683569 -4.716872052717977 0 0 0
1408 470 1 -1.054 -15.192254322395172 0.5418603227737844 -6.547181171459543 0 0 1
1409 470 2 0.527 -15.80538679294511 0.6219241934103348 -7.277897295525307 0 0 1
167 56 2 0.527 -23.10706178532991 7.6937431936892775 -3.7238583887339365 0 1 1
83 28 2 0.527 -22.504489820537025 4.226752504688799 -4.072032868052232 0 0 0
2057 686 2 0.527 -20.4566175880902 1.2119031582921984 -5.589539711695651 1 1 0
481 161 1 -1.054 -17.77953226914611 0.5673397270124596 -7.757394025158375 0 0 1
483 161 2 0.527 -18.373020456228517 1.026429737191739 -7.163007163519927 0 0 1
1249 417 1 -1.054 -13.03838713352941 7.976575506599387 -7.379696526050553 0 0 1
2058 686 2 0.527 -21.710432800158905 1.9763897632558347 -5.221378954417629 1 1 0
1250 417 2 0.527 -13.578480231767301 8.317724926520993 -6.666812091261949 0 0 1
1840 614 1 -1.054 -22.948669716822018 0.5483973544043153 -0.6566506017008908 1 0 0
2056 686 1 -1.054 -21.37052268211276 1.088525695760998 -5.332940519701086 1 1 0
1410 470 2 0.527 -14.610443694641585 1.2965008987410656 -6.638294308277933 0 0 1
262 88 1 -1.054 -18.166448914465107 1.5783415154506972 -2.8252373462804456 0 -1 1
263 88 2 0.527 -17.887806053035476 2.10950146240652 -2.07923781783098 0 -1 1
264 88 2 0.527 -17.352104411777255 1.3437170768524265 -3.2703014565097694 0 -1 1
287 96 2 0.527 -22.866292920437683 4.214525094093904 -6.409844519999217 0 0 0
1514 505 2 0.527 -19.09054475759436 3.022706915559729 -3.0936901574471323 1 -1 1
446 149 2 0.527 -13.105792370901964 5.615460104229157 -4.6529185973835965 0 0 1
1681 561 1 -1.054 -11.680547899164342 7.733168100974192 -2.452573716315758 1 1 0
1513 505 1 -1.054 -19.46381812105504 3.888844354831127 -3.2572772991107186 1 -1 1
2097 699 2 0.527 -15.589603388004816 3.9773153699776387 -2.3017889650457732 1 0 0
2096 699 2 0.527 -16.486692105846537 4.850266267509193 -3.153389178425047 1 0 0
1831 611 1 -1.054 -22.581800410070173 0.397298637047351 -8.426199311254932 1 -1 0
1682 561 2 0.527 -12.184494800945354 7.0967104154724385 -2.9597688216547384 1 1 0
2095 699 1 -1.054 -15.712213421993015 4.289507568805869 -3.198332517125957 1 0 0
1542 514 2 0.527 -13.592732073706674 3.5928989535234592 -1.0877878620132755 0 1 1
90 30 2 0.527 -19.157246220643557 7.803051938467368 -2.177885163975936 0 0 1
88 30 1 -1.054 -19.632774313765246 8.55119210864929 -1.8167108222712445 0 0 1
89 30 2 0.527 -19.378450475577374 8.574548306570694 -0.8941808586296807 0 0 1
311 104 2 0.527 -18.13529416278403 2.808552436878996 -6.225309890431321 0 -1 1
312 104 2 0.527 -19.09556917604499 3.089424781695987 -5.089080423056213 0 -1 1
829 277 1 -1.054 -17.953198448165434 4.689768105760708 -8.01855659036421 0 0 0
831 277 2 0.527 -17.20208264622297 5.255157724180927 -7.838425461965526 0 0 0
310 104 1 -1.054 -19.04700294624837 2.691307743395642 -5.958236207979476 0 -1 1
352 118 1 -1.054 -19.630552470898465 7.738503635662019 -6.6023572753645965 0 0 0
353 118 2 0.527 -19.805208577964514 8.186056276343061 -7.4302942280077104 0 0 0
359 120 2 0.527 -14.51590811633747 1.7651888780514255 -2.4666719073899195 0 0 0
358 120 1 -1.054 -14.1244685616911 1.96670632105808 -1.6166992992473395 0 0 0
360 120 2 0.527 -14.631242911684746 1.4497037472995178 -0.9904599799647427 0 0 0
1541 514 2 0.527 -14.400078143790331 4.420584482980281 -0.11046309107651098 0 1 1
2094 698 2 0.527 -17.343169335209257 6.800600173402014 -3.204660418124373 1 0 0
354 118 2 0.527 -20.13554078140996 6.927150078156886 -6.656944002773114 0 0 0
1540 514 1 -1.054 -13.513790605270001 4.305181073006507 -0.45319341351871856 0 1 1
2092 698 1 -1.054 -17.7183294887731 6.247069300157822 -2.51971797824965 1 0 0
2093 698 2 0.527 -18.33402161523948 5.677900915762333 -2.981516891952201 1 0 0
1251 417 2 0.527 -12.933267723764445 7.046888544149839 -7.177410318657117 0 0 1
1970 657 2 0.527 -16.377426959213928 6.37807835389963 -0.24282666014490317 1 1 0
482 161 2 0.527 -18.136140120720892 0.7353047697075521 -8.62969340111466 0 0 1
865 289 1 -1.054 -12.153845884721985 2.6797082669846404 -3.986179899070062 0 0 1
1515 505 2 0.527 -20.24025565196814 3.7187241933413766 -3.790654744922354 1 -1 1
866 289 2 0.527 -12.347477534395475 2.99199427434249 -4.870075692734321 0 0 1
867 289 2 0.527 -12.0563194248709 1.7323293048600288 -4.08235374006121 0 0 1
1733 578 2 0.527 -19.229276518290487 0.8831506965206248 -1.313319971939257 1 0 0
370 124 1 -1.054 -14.785427110617738 3.340227116729727 -7.154224123742161 0 0 0
82 28 1 -1.054 -22.06559260625948 3.448090044435016 -3.7294810763937685 0 0 0
637 213 1 -1.054 -15.808534194616831 6.224349866335883 -7.2070293250001 0 0 1
1523 508 2 0.527 -15.81625579317232 8.228243475599529 -4.90843340160761 1 0 1
1522 508 1 -1.054 -16.045010171217257 7.329673609326504 -4.670669936004016 1 0 1
139 47 1 -1.054 -12.537838392073027 5.182373967252904 -6.40676875541384 0 -1 1
948 316 2 0.527 -21.143306840885636 8.086311297657838 -5.661445375209569 0 0 0
946 316 1 -1.054 -21.957085234997987 8.156999978220766 -5.1623906735095275 0 0 0
638 213 2 0.527 -15.868873945751908 6.7295613909018694 -6.396222232096056 0 0 1
140 47 2 0.527 -13.358903638917027 4.903646580765665 -6.812293998164998 0 -1 1
372 124 2 0.527 -15.368076423560677 4.05932810230269 -6.9098859378140025 0 0 0
407 136 2 0.527 -20.590800292199877 4.153706905400876 -6.448540769835661 0 0 0
408 136 2 0.527 -19.658300876846138 5.129640486145487 -7.13413055257973 0 0 0
1524 508 2 0.527 -15.205495601163115 6.910147177093233 -4.482253904108615 1 0 1
447 149 2 0.527 -14.155754504790893 5.218743357824213 -3.636931341026803 0 0 1
445 149 1 -1.054 -13.547727539047454 5.923125378935099 -3.861512960744232 0 0 1
141 47 2 0.527 -11.855624698526594 4.799834631465556 -6.958616824795675 0 -1 1
116 39 2 0.527 -12.641852252128494 0.8185582234430413 -1.8666114124564999 0 0 0
115 39 1 -1.054 -11.718754796365417 0.6537010587407384 -2.058967479361824 0 0 0
1694 565 2 0.527 -20.78480831624658 4.8118822768709375 -1.5948823259293912 1 1 0
1693 565 1 -1.054 -21.39726705845971 4.942902791955028 -0.870993146331017 1 1 0
1695 565 2 0.527 -22.23528072076762 5.126077754909176 -1.2958076065793094 1 1 0
406 136 1 -1.054 -20.46861525704202 5.086299068638345 -6.626390354529421 0 0 0
371 124 2 0.527 -15.0291597476708 3.1295513430839534 -8.055610768482858 0 0 0
1661 554 2 0.527 -21.70038466229019 3.2383794600782814 -0.06834892730963027 1 0 -1
1734 578 2 0.527 -20.038092935375467 1.0158015965848328 -0.04042780658776124 1 0 0
1732 578 1 -1.054 -19.558921491168928 0.3783069068202405 -0.56984530043467 1 0 0
143 48 2 0.527 -16.97353887254553 3.7439383809085918 -0.31905108536554216 0 0 -1
142 48 1 -1.054 -17.3591457715781 2.8825653269476366 -0.4791494839458714 0 0 -1
84 28 2 0.527 -22.777870426630166 2.8444456645689815 -3.5183852157169797 0 0 0
410 137 2 0.527 -21.315226379591444 5.55214337600267 -8.523660571456505 0 -1 1
271 91 1 -1.054 -12.10883981585839 1.0609355458577383 -8.054061145025676 0 0 1
639 213 2 0.527 -15.24517411346781 6.749381262809724 -7.7755846025034385 0 0 1
272 91 2 0.527 -12.166250776084183 0.6030682324039702 -7.215402007072196 0 0 1
1832 611 2 0.527 -22.616498126321158 0.5903824235525548 -7.489288295384171 1 -1 0
288 96 2 0.527 -23.009458332004563 3.4515995921941958 -7.709645758273794 0 0 0
1842 614 2 0.527 -23.096625497122435 0.8281010567126881 -1.560067742421686 1 0 0
1939 647 1 -1.054 -22.816242489367394 -2.84002373739819 0.4336289224190697 1 0 -1
882 294 2 0.527 -20.040079138336203 -2.3930901128681485 0.996019409339322 0 0 0
880 294 1 -1.054 -19.67255467008614 -2.9475871425284232 0.3077269849168083 0 0 0
356 119 2 0.527 -17.381105028168516 -4.07180290125291 0.5518807630189695 0 0 0
355 119 1 -1.054 -17.30823428165405 -5.005005622229239 0.35160543764526686 0 0 0
1941 647 2 0.527 -21.95978514674809 -2.8438244535791597 0.0061315102050887305 1 0 -1
134 45 2 0.527 -15.477045832710013 -6.329544095004833 2.5031588263432436 0 1 0
133 45 1 -1.054 -15.032671680791452 -6.201436569647247 1.6650611363720706 0 1 0
914 305 2 0.527 -13.407012906251882 -0.5711477007589281 1.2515037860237541 0 0 1
903 301 2 0.527 -12.206982055088677 -5.217134569447627 6.093488637922237 0 0 0
768 256 2 0.527 -21.97147086086118 -6.088217872736222 5.146332245211189 0 0 0
487 163 1 -1.054 -13.050128720283755 -2.2653667188949704 8.012285072397317 0 -1 0
489 163 2 0.527 -13.450199961298905 -1.4570184243575923 7.691654883015479 0 -1 0
135 45 2 0.527 -14.465417383628827 -6.967165471230309 1.5746753361442565 0 1 0
158 53 2 0.527 -18.233405383974695 -8.284994667726162 6.8665516325281 0 0 0
1871 624 2 0.527 -21.280748327313912 -6.0900641075357695 0.288325056897051 1 1 0
926 309 2 0.527 -12.007057030891707 -8.210927684651239 2.9804125274723727 0 0 1
295 99 1 -1.054 -12.198819243587057 -1.6423752540912941 0.6181662294792769 0 0 0
443 148 2 0.527 -12.166566485379843 -2.3522600293151132 6.38172948274868 0 0 0
425 142 2 0.527 -11.627948730867374 -7.048778906371961 0.06528189559022834 0 1 1
52 18 1 -1.054 -18.055691800328905 -0.46774843119487564 1.6307814526170965 0 0 0
656 219 2 0.527 -21.593505895925645 -1.524051436878434 2.824510572914269 0 1 1
1974 658 2 0.527 -20.0150287876231 -3.6628751053416906 2.9005309642027584 1 1 0
278 93 2 0.527 -15.765505175380802 -2.746736858180652 6.44368677015388 0 0 -1
195 65 2 0.527 -20.391550291817264 -3.667651393030342 7.405911871722575 0 0 0
207 69 2 0.527 -15.679993730370278 -4.5373361272739565 8.603774603914982 0 0 0
205 69 1 -1.054 -15.885619340986882 -3.6890576458770017 8.210799473247357 0 0 0
35 12 2 0.527 -15.041281967003831 -3.6623254011861848 0.475699891300037 0 0 0
466 156 1 -1.054 -13.64373115126232 -7.20221697884098 8.558978157705445 0 0 0
467 156 2 0.527 -13.993454376342498 -7.272053313902933 7.670662822255748 0 0 0
1838 613 2 0.527 -22.40217439202862 -2.7423381037674046 7.824498463016527 1 1 0
596 199 2 0.527 -12.557073928676347 -4.796637121305658 3.3074792055392574 0 0 0
657 219 2 0.527 -20.177510313204078 -0.9927701447354575 2.893293962568615 0 1 1
54 18 2 0.527 -18.66016777862807 -0.3353886332608411 0.9004544992602774 0 0 0
413 138 2 0.527 -13.052647346514323 -1.5857743627199419 4.055018926043834 0 0 -1
595 199 1 -1.054 -12.503596715966289 -4.790703121599921 4.263194970029469 0 0 0
597 199 2 0.527 -12.731345897457636 -3.894525105698813 4.510748917164788 0 0 0
1973 658 2 0.527 -20.08881170635312 -5.127460720876368 2.5242600377288635 1 1 0
1972 658 1 -1.054 -19.754269759241723 -4.534758427219432 3.197367291094956 1 1 0
465 155 2 0.527 -21.675816765495647 -4.501433146188968 3.7027954204676217 0 1 -1
1743 581 2 0.527 -15.622938714228667 -6.8683371170860665 6.039644702244754 1 0 -1
1741 581 1 -1.054 -14.684688900284867 -6.958345242129765 5.872691335819701 1 0 -1
357 119 2 0.527 -16.653901975181313 -5.33252980407334 0.9687479206842049 0 0 0
279 93 2 0.527 -15.098537310760182 -2.6424513816803428 5.0885804790685185 0 0 -1
277 93 1 -1.054 -15.906162451454318 -2.4238555020492987 5.553602123038882 0 0 -1
1928 643 2 0.527 -20.985548202916956 -0.2811790500947371 6.397647619961209 1 1 0
1742 581 2 0.527 -14.479775276268626 -6.247623984474159 5.265095003576706 1 0 -1
629 210 2 0.527 -17.138110516789023 -2.005174628520419 2.0106069922015397 0 0 1
460 154 1 -1.054 -19.281815868752457 -7.758779387757499 3.862462840952297 0 0 -1
462 154 2 0.527 -18.950571616327935 -7.641422143163566 2.972074096482906 0 0 -1
461 154 2 0.527 -18.502820571789073 -7.949044345325621 4.385199112799162 0 0 -1
412 138 1 -1.054 -13.685510562478651 -2.032527308424429 3.4927168561051776 0 0 -1
414 138 2 0.527 -14.10456033918789 -1.3290718086344189 2.9968990754122764 0 0 -1
101 34 2 0.527 -17.30847469717572 -4.279555609978407 4.753044994367157 0 0 0
102 34 2 0.527 -18.230281306869955 -5.105606397255741 3.8812952747917233 0 0 0
100 34 1 -1.054 -17.385533820139347 -5.135033156502116 4.3305432082766835 0 0 0
628 210 1 -1.054 -16.838421386139995 -2.902215016272109 2.158230367744723 0 0 1
630 210 2 0.527 -17.04222465557231 -3.075137298460878 3.0773873927684665 0 0 1
1938 646 2 0.527 -15.96522486351758 -0.2403655083342855 5.167447212589096 1 0 0
194 65 2 0.527 -19.23670777614555 -3.215344794896816 8.274124004537258 0 0 0
517 173 1 -1.054 -17.4649960957346 -6.193983110693718 6.7406509161057215 0 1 0
519 173 2 0.527 -17.7331296666 -5.37096013097604 7.149338199385241 0 1 0
36 12 2 0.527 -13.600058762625128 -3.4064237812168283 0.08914467088358613 0 0 0
193 65 1 -1.054 -19.55467854994735 -3.96155854077975 7.765845250668997 0 0 0
518 173 2 0.527 -17.566068554216535 -6.039624150872578 5.801371641151448 0 1 0
463 155 1 -1.054 -22.459140108707818 -4.546585901308353 4.251114159053632 0 1 -1
464 155 2 0.527 -22.4958611845733 -3.695513894508596 4.68770966696513 0 1 -1
488 163 2 0.527 -13.79137275055358 -2.818935259107721 8.258063195041514 0 -1 0
767 256 2 0.527 -20.53883983102891 -6.185297864842337 5.626101355802065 0 0 0
1870 624 1 -1.054 -21.204055802017322 -6.257312303146036 1.2277045726921436 1 1 0
655 219 1 -1.054 -20.70529599870479 -1.6936099506531512 2.5104711018142023 0 1 1
1872 624 2 0.527 -22.086898152878366 -6.508121985085651 1.4996816426947959 1 1 0
766 256 1 -1.054 -21.44026721097559 -6.3661847492023504 5.89255256531948 0 0 0
1837 613 1 -1.054 -22.440344485355233 -2.5534049879840186 6.886876454301227 1 1 0
1031 344 2 0.527 -20.83597656473738 -7.804746104154808 7.9798182281840635 0 0 0
1187 396 2 0.527 -19.795243171397047 -7.616500749228143 1.133131807380673 1 1 0
1186 396 1 -1.054 -19.038629116242497 -8.180303338331056 0.9720429682756713 1 1 0
901 301 1 -1.054 -11.84515597850792 -5.573681522340726 6.9048107741104445 0 0 0
1030 344 1 -1.054 -20.352038902848598 -8.513323072743948 8.404094952626464 0 0 0
925 309 1 -1.054 -12.838367563666873 -7.8456168199991465 2.6774959309753257 0 0 1
927 309 2 0.527 -12.607551987850803 -7.335052876576681 1.9013926361682305 0 0 1
716 239 2 0.527 -22.900681146620517 -5.802405761349919 7.298596963856847 0 -1 0
902 301 2 0.527 -12.596686545147788 -5.962769474606018 7.352135816608394 0 0 0
296 99 2 0.527 -11.968460002151009 -2.0377935836158265 1.4589198211234997 0 0 0
424 142 1 -1.054 -12.4113360915862 -6.5022320329510155 0.12755929968686353 0 1 1
442 148 1 -1.054 -11.609999681078293 -2.3314354087589884 5.603213322792012 0 0 0
409 137 1 -1.054 -21.452396232338746 6.023787125003114 8.034107565228611 0 -1 0
429 143 2 0.527 -19.425782344812344 4.316738185865736 6.3718566743378116 0 -1 0
159 53 2 0.527 -19.196412847989187 8.02817072253096 6.389198598243276 0 -1 0
398 133 2 0.527 -14.969671743156411 0.9551910033988644 7.0587333824876595 0 0 0
397 133 1 -1.054 -14.176706765410007 0.42983196712520844 7.165934417922779 0 0 0
913 305 1 -1.054 -13.841876686660997 0.18491445750558455 1.6459042496905578 0 0 1
411 137 2 0.527 -21.041874849012906 5.471364049293404 7.368834118109186 0 -1 0
1969 657 1 -1.054 -16.516793993633463 5.474469938554202 0.04064525870936109 1 1 0
1971 657 2 0.527 -17.184747994450394 5.537444021335139 0.723403902002838 1 1 0
1822 608 1 -1.054 -16.082877572913393 8.350448269021784 0.3666865770810599 1 0 -1
1824 608 2 0.527 -16.99448757321071 8.567898303480655 0.1718271911147582 1 0 -1
830 277 2 0.527 -18.068738297436006 4.739269885158729 8.411869957659901 0 0 -1
1922 641 2 0.527 -22.77781118337534 5.598995806217502 5.316766048457131 1 -1 0
399 133 2 0.527 -13.72607185688909 0.8250237546404211 7.912285081491886 0 0 0
704 235 2 0.527 -14.879485917094478 6.968230613936306 1.3470531944488364 0 0 0
1595 532 2 0.527 -12.452020748795768 4.38635319794559 0.8754687533128855 1 0 1
915 305 2 0.527 -13.174335332548578 0.8709648199474724 1.6492568752167944 0 0 1
1931 644 2 0.527 -19.49555192287097 1.343895656762344 6.575571688105649 1 1 -1
157 53 1 -1.054 -18.262932426344783 8.226538780852104 6.463710428932103 0 -1 0
228 76 2 0.527 -16.16110347466471 3.01390710454028 6.847839242668263 0 0 -1
53 18 2 0.527 -17.357503231062786 0.1702218646085445 1.4830846468235492 0 0 0
1927 643 1 -1.054 -21.18780824026472 0.5526693534396241 5.9732949343200445 1 1 0
174 58 2 0.527 -15.586264436967 1.06073143933029 1.5326746499694988 0 0 0
449 150 2 0.527 -19.524684780173384 1.5974750659195518 3.2430950508714282 0 0 0
448 150 1 -1.054 -19.446009315740998 0.9439161180355438 3.938047209618686 0 0 0
450 150 2 0.527 -18.523044005406344 0.6903998033523955 3.925711386756248 0 0 0
1937 646 2 0.527 -17.197188208386784 0.3588186837478826 5.811868990751989 1 0 0
1936 646 1 -1.054 -16.576492003037323 0.49276060495494534 5.095570555350957 1 0 0
1929 643 2 0.527 -20.717983865274096 0.5180727999266068 5.140014875977906 1 1 0
1930 644 1 -1.054 -18.593757377486227 1.4613338288721849 6.87434013196752 1 1 -1
916 306 1 -1.054 -11.658011621630319 5.162638758507464 6.856277308241342 0 0 0
711 237 2 0.527 -20.613927179122236 4.2105405564746 3.1742070626287635 0 -1 0
227 76 2 0.527 -15.274387292267768 3.972555526710341 7.613843481544494 0 0 -1
809 270 2 0.527 -12.80395618171418 7.6580789138832746 4.5334071603114925 0 -1 0
810 270 2 0.527 -14.052206946113321 8.39392325413103 4.972084386488378 0 -1 0
256 86 1 -1.054 -20.46828730341376 7.136678942174779 4.684750003041124 0 0 0
1662 554 2 0.527 -22.092274265448918 1.823582570839907 0.3015255896834379 1 0 -1
257 86 2 0.527 -19.96421524496686 7.890868565463139 4.379140892562223 0 0 0
258 86 2 0.527 -21.379154603581288 7.429673572055963 4.65713460510435 0 0 0
1942 648 1 -1.054 -22.892361757254626 7.282005726283417 2.768327202419581 1 -1 -1
1663 555 1 -1.054 -20.698313422308463 6.8317363469639965 1.1498674594969405 1 0 -1
1664 555 2 0.527 -20.092983039866322 6.161627729429188 1.4673846611949628 1 0 -1
1188 396 2 0.527 -19.41170360865854 8.326220618929698 0.848558869131347 1 0 0
457 153 1 -1.054 -21.52615470242343 4.097736932851683 5.921514066147289 0 0 -1
459 153 2 0.527 -21.453764148499772 3.843983625944846 5.001374701115861 0 0 -1
458 153 2 0.527 -22.072166599700072 3.417525545183908 6.315812391129979 0 0 -1
705 235 2 0.527 -14.351725396266366 7.281150072228453 2.7310997200339298 0 0 0
703 235 1 -1.054 -14.76654631856958 6.58760566815204 2.2180622847636577 0 0 0
1665 555 2 0.527 -21.022030793168 6.487659508816542 0.3173376396985077 1 0 -1
1932 644 2 0.527 -18.49210965795183 2.4089203391765555 6.963979845747357 1 1 -1
738 246 2 0.527 -14.115153178036008 5.228441089591877 3.2193484373621857 0 0 0
983 328 2 0.527 -15.111216797508403 5.87511432423346 6.627506439869213 0 -1 0
144 48 2 0.527 -16.985446705596008 2.322159004315072 0.20098396707587263 0 0 -1
172 58 1 -1.054 -16.397600918045306 1.5651291950948156 1.5927054085203078 0 0 0
173 58 2 0.527 -16.329672911390062 2.0306293903887784 2.4263615202203628 0 0 0
982 328 1 -1.054 -14.623231085346529 5.589981397613537 7.400071531359382 0 -1 0
984 328 2 0.527 -13.797751600789915 5.253087828865221 7.05168411985993 0 -1 0
364 122 1 -1.054 -18.57052697135842 4.809487912126384 3.1333222142596533 0 0 -1
709 237 1 -1.054 -21.361548722856295 3.6130971732109423 3.194483217018286 0 -1 0
1660 554 1 -1.054 -21.488169208849065 2.5278104055327955 0.5369145833477482 1 0 -1
698 233 2 0.527 -15.20105735012295 3.0661175596295926 3.862271086490013 0 0 0
697 233 1 -1.054 -16.142530180707194 2.8944353897907575 3.8832900137225277 0 0 0
1944 648 2 0.527 -22.212820203547214 7.118685141562574 2.1142342991663376 1 -1 -1
1032 344 2 0.527 -20.760234765316977 8.065518875610033 8.07421014922314 0 -1 0
699 233 2 0.527 -16.221653446919483 2.042858485103027 4.313225067137287 0 0 0
808 270 1 -1.054 -13.738444710669413 7.532065151010469 4.6981473443163555 0 -1 0
366 122 2 0.527 -18.30677563410719 5.668809164385744 3.462396375741516 0 0 -1
226 76 1 -1.054 -15.557331904570471 3.0584286056097962 7.58930091620101 0 0 -1
427 143 1 -1.054 -18.54860140029465 4.272990054141589 6.752549936755548 0 -1 0
365 122 2 0.527 -17.926249855771964 4.203949406537324 3.5000885612677397 0 0 -1
737 246 2 0.527 -13.086170797025375 4.899079642411607 4.279891325706698 0 0 0
1029 343 2 0.527 -12.944786827732242 0.7860424824915064 5.293730270491041 0 0 0
1650 550 2 0.527 -15.809714617174961 6.919040432382225 4.908077906903779 1 0 0
1649 550 2 0.527 -16.975653273406394 7.131260037514144 5.850195126463282 1 0 0
1648 550 1 -1.054 -16.5214435775105 6.454403107979751 5.348352486886778 1 0 0
736 246 1 -1.054 -13.659588366659195 4.493312860112924 3.6296350067641026 0 0 0
428 143 2 0.527 -17.98126182797847 4.675563601301642 6.095018203363487 0 -1 0
710 237 2 0.527 -21.404069790567615 3.251737205689743 2.3091027153880166 0 -1 0
1596 532 2 0.527 -12.382515655914053 4.358262292598582 2.3875583254939645 1 0 1
1027 343 1 -1.054 -12.299062189378114 0.9100618992756786 4.598067650027133 0 0 0
452 151 2 0.527 -22.423499575604005 1.8323209009654615 3.8184255148063375 0 -1 0
1594 532 1 -1.054 -11.844755260630134 4.2510969501249 1.6029455472045147 1 0 1
1023 341 2 0.527 -5.949584343825311 -1.3461249278993055 -3.3594612819568272 0 0 0
874 292 1 -1.054 -9.458394054550698 -1.265030671345615 -0.564040788199689 0 0 0
1449 483 2 0.527 -5.033760186901624 -4.241489316124376 -6.040305292160126 0 0 0
859 287 1 -1.054 -6.694685361048254 -4.180481495651701 -1.2155658323926408 0 0 0
860 287 2 0.527 -7.024476677385298 -3.739262256337894 -0.4327178102283842 0 0 0
910 304 1 -1.054 -8.792295526785294 -5.753360218547897 -2.4759868096427713 0 0 1
1021 341 1 -1.054 -6.623554646044827 -0.8765354988115437 -3.850925824632516 0 0 0
188 63 2 0.527 -8.64541336006066 -3.088979062719999 -4.782034556645798 0 0 1
1447 483 1 -1.054 -4.718571480445231 -3.627769277631071 -6.703849952649824 0 0 0
1448 483 2 0.527 -4.097193398919259 -4.136155059504963 -7.2251184417280285 0 0 0
189 63 2 0.527 -7.257277428628489 -3.6153084821087305 -5.078835570829065 0 0 1
187 63 1 -1.054 -7.917959617825936 -3.000495173517357 -5.397883110794101 0 0 1
1022 341 2 0.527 -7.191692674238139 -1.5648567868790906 -4.19693253274108 0 0 0
1086 362 2 0.527 -0.6959563493708423 -6.209424988665922 -3.210871936395301 0 1 0
876 292 2 0.527 -9.23645908534264 -0.3341303258009738 -0.5426616849400556 0 0 0
1242 414 2 0.527 -3.4082720211077238 -0.6081732713280754 -8.613216428508363 0 0 0
912 304 2 0.527 -8.41110366024638 -6.2809476377801285 -1.7741092981939417 0 0 1
529 177 1 -1.054 -2.7188065031544753 -5.769392874978872 -3.540870239049667 0 0 1
531 177 2 0.527 -2.7198325410678272 -6.301172274589561 -4.33679560754593 0 0 1