# SiO

9 atoms
2 atom types

0 5.1463944279 xlo xhi
0 5.1463944279 ylo yhi
0 5.1463944279 zlo zhi

Masses

1 28.0855
2 15.9994

Atoms #atom-ID molecule-ID atom-type q x y z

1   1     1      1.1    	2.308807 0.000000 3.603467  
2   1     1      1.1   	-1.154403 1.999485 1.801733 
3   1     1      1.1    	-1.154403 -1.999485 0.000000
4   1     2      -0.550000    	1.375998 1.140800 4.245244  
5   1     2      -0.550000    	-1.675961 0.621249 7.848711 
6   1     2      -0.550000    	0.299963 -1.762049 6.046977 
7   1     2      -0.550000    	0.299963 1.762049 -4.245244 
8   1     2      -0.550000    	-1.675961 -0.621249 -0.64177
9   1     2      -0.550000    	1.375998 -1.140800 -2.443511





