LAMMPS Description

     9  atoms
     8  bonds
     13  angles
     12  dihedrals
     0  impropers

     69  atom types
     258  bond types
     162  angle types
     47  dihedral types
     5  improper types

  -25.0 25.0 xlo xhi
  -25.0 25.0 ylo yhi
  -25.0 25.0 zlo zhi

Atoms  # full

1 1 58 0.413000 -1.9369780561 0.2081864316 0.0039393012
2 1 67 -0.679000 -1.1279388978 -0.3278638328 -0.0115142987
3 1 64 0.372000 -0.0167418114 0.5742823745 0.0006732268
4 1 20 -0.029000 -0.0495709501 1.2218333884 0.8906679228
5 1 20 -0.029000 -0.0411445347 1.2312849625 -0.8829255192
6 1 12 -0.285000 1.2619037415 -0.2477058721 0.0008462463
7 1 20 0.079000 1.3137331545 -0.8821474237 0.892856469
8 1 20 0.079000 1.304510821 -0.8928524895 -0.8840290697
9 1 20 0.079000 2.1384935846 0.4096792698 -0.0084898578

Bonds

1 60 1 2
2 18 2 3
3 39 3 4
4 39 3 5
5 26 3 6
6 3 6 7
7 3 6 8
8 3 6 9

Angles

1 12 1 2 3
2 15 2 3 4
3 15 2 3 5
4 13 2 3 6
5 43 4 3 5
6 51 4 3 6
7 51 5 3 6
8 51 3 6 7
9 51 3 6 8
10 51 3 6 9
11 47 7 6 8
12 47 7 6 9
13 47 8 6 9

Dihedrals

1 47 1 2 3 4
2 47 1 2 3 5
3 23 1 2 3 6
4 34 2 3 6 7
5 47 2 3 6 8
6 47 2 3 6 9
7 47 4 3 6 7
8 47 4 3 6 8
9 47 4 3 6 9
10 47 5 3 6 7
11 47 5 3 6 8
12 47 5 3 6 9

