ITEM: TIMESTEP
1000
ITEM: NUMBER OF ATOMS
4500
ITEM: BOX BOUNDS pp pp pp
-3.5000000000000000e+01 3.5000000000000000e+01
-1.7399999999999999e+01 1.7399999999999999e+01
-1.7399999999999999e+01 1.7399999999999999e+01
ITEM: ATOMS id type x y z
2133 2 -27.2656 -10.0068 -10.6537
137 5 -25.4418 -12.1522 -7.79849
139 4 -24.9182 -13.3801 -9.50924
138 5 -24.905 -12.3435 -9.02316
140 5 -24.2459 -11.2954 -9.59764
141 4 -23.8092 -11.4845 -10.5511
142 5 -24.1209 -10.1117 -8.99223
373 4 -21.2883 -12.5658 -11.5022
372 5 -20.8547 -11.5745 -11.2462
367 5 -20.5569 -11.2739 -9.9084
374 5 -20.5359 -10.8019 -12.272
371 4 -21.5807 -12.9889 -9.00731
222 5 -13.5513 -12.2422 -12.0541
223 4 -14.0186 -12.5052 -13.0151
940 4 -13.711 -9.45962 -12.4005
220 4 -15.8147 -10.2382 -11.0972
224 5 -12.1766 -12.4785 -12.0245
219 4 -16.3084 -11.6698 -10.2382
221 4 -16.1586 -11.6048 -12.067
218 3 -15.748 -11.3355 -11.0954
217 5 -14.2869 -11.784 -10.9461
215 5 -13.6344 -11.5864 -9.7291
216 4 -14.1272 -11.2246 -8.80374
213 5 -12.2869 -11.7682 -9.71206
214 4 -11.7879 -11.4378 -8.83982
365 5 -19.8781 -10.0937 -9.5289
225 4 -11.5314 -12.498 -12.9275
516 4 -6.90973 -12.2221 -10.6054
513 5 -8.28193 -11.1239 -11.9411
514 4 -8.43204 -11.9602 -12.6879
515 5 -7.46904 -11.3428 -10.7982
517 5 -7.35379 -10.2356 -9.93828
1285 4 -4.44852 -9.35958 -10.7665
211 4 -10.4738 -12.261 -10.8511
212 5 -11.5655 -12.2646 -10.828
521 4 -6.29228 -9.42264 -8.13041
518 3 -6.57249 -10.401 -8.63072
520 4 -5.57622 -10.9027 -8.87329
1284 4 -3.5721 -10.9858 -10.8411
1280 5 -1.52339 -10.2625 -12.2965
1282 5 -2.53005 -9.4755 -11.8073
1283 3 -3.82896 -10.049 -11.3397
1281 4 -1.53766 -11.3641 -12.1866
1286 4 -4.37039 -10.3213 -12.3277
1440 4 3.70115 -10.353 -11.9339
1519 4 -4.07914 -9.62075 -7.66975
1439 5 4.14501 -9.33622 -11.9042
1438 4 6.22393 -10.0022 -12.0626
1752 5 8.66453 -9.61158 -9.43516
1751 4 6.2764 -11.2303 -9.65699
3800 2 10.9945 -9.93133 -11.0005
1745 5 9.67148 -11.682 -8.79
1750 4 6.98643 -12.5567 -8.88936
1747 5 8.5436 -10.9835 -9.1557
3799 1 11.4376 -9.70982 -11.8195
1742 5 11.0218 -9.69319 -8.82004
1749 4 7.41516 -12.3248 -10.5618
1748 3 7.24874 -11.7391 -9.6034
3480 2 12.4523 -11.2123 -12.4295
3801 2 11.1287 -8.8283 -12.0287
4043 2 14.5123 -10.4134 -12.5968
4042 1 15.1907 -9.8522 -12.2213
3804 2 15.1062 -9.567 -9.02351
3802 1 15.6076 -10.1848 -9.55558
3803 2 15.3847 -9.95969 -10.4588
3750 2 14.5947 -11.9904 -10.1588
3479 2 12.5832 -12.2931 -13.4815
3478 1 13.0916 -11.7915 -12.8442
3749 2 13.4424 -12.5929 -10.9341
4044 2 15.8843 -9.84 -12.8808
3748 1 13.9046 -12.6509 -10.0979
3528 2 17.3112 -10.4048 -9.64591
4450 1 18.9212 -9.79201 -12.3227
4452 2 19.8537 -9.70799 -12.124
3527 2 18.517 -10.2544 -10.5488
3526 1 18.2457 -10.1981 -9.6326
1741 4 11.9729 -9.14474 -8.75242
3501 2 21.2481 -10.9061 -9.60144
1406 4 24.4354 -12.0804 -11.0592
1403 3 25.2161 -11.5884 -10.4559
1405 4 26.1549 -11.7104 -10.9852
4303 1 21.2508 -9.61846 -10.7853
4305 2 22.0671 -9.88146 -11.2102
1404 4 25.1372 -10.5282 -10.3903
1828 4 27.784 -8.04428 -13.2041
1827 5 27.6821 -8.18449 -12.0961
3500 2 20.3511 -11.1342 -8.40343
1817 5 28.6388 -8.94652 -10.0743
3499 1 21.0094 -11.5645 -8.94897
1401 4 27.3827 -12.1836 -9.45101
1829 5 28.7963 -8.61112 -11.3732
1830 4 29.7863 -8.63039 -11.8618
2131 1 -27.1805 -9.25107 -11.235
2132 2 -28.0679 -9.09581 -11.5584
2206 1 -29.7813 -7.93614 -12.2558
2075 2 -28.0752 -4.4286 -12.2524
2074 1 -28.7323 -5.12158 -12.1882
2076 2 -29.4575 -4.72096 -11.7087
2208 2 -30.5851 -7.86037 -11.7416
2207 2 -29.6457 -7.06121 -12.6196
2387 2 -29.2543 -1.41735 -9.46516
2316 2 -30.7644 -2.88388 -10.5717
2314 1 -30.6729 -3.21534 -11.465
2315 2 -30.6246 -2.42918 -12.0089
2386 1 -30.2051 -1.31047 -9.4398
2181 2 -27.7475 -6.31065 -11.1032
2179 1 -27.2375 -6.66193 -10.3733
2180 2 -27.2802 -7.61154 -10.4858
2221 1 -27.2308 -0.0144826 -12.7833
2222 2 -28.1638 -0.220586 -12.7261
2267 2 -30.0645 -0.643131 -11.1786
2266 1 -29.988 -0.485572 -12.1196
143 3 -23.7002 -8.89925 -9.76302
146 4 -22.833 -8.44193 -9.23336
375 4 -20.9057 -11.0586 -13.2868
2172 2 -26.6981 -2.29814 -12.9003
2145 2 -26.9823 -1.86567 -9.3979
2144 2 -27.3414 -2.22085 -10.8251
2143 1 -27.5842 -1.63723 -10.1063
2170 1 -26.6586 -3.06938 -12.3347
2382 2 -26.988 -6.02757 -13.1438
144 4 -23.2444 -9.05312 -10.754
2381 2 -26.4498 -7.42494 -12.9212
2380 1 -26.2636 -6.60644 -13.3812
2336 2 -26.0358 -5.75743 -9.60602
2171 2 -25.7476 -3.10709 -12.0436
2079 2 -24.9331 -5.73466 -12.54
2078 2 -24.6926 -5.40513 -11.0821
2077 1 -24.3467 -5.24812 -11.9607
2274 2 -22.4054 -3.02634 -12.2821
2071 1 -20.404 -3.20894 -9.04029
2273 2 -23.8615 -3.42965 -12.3768
2272 1 -23.2938 -2.67735 -12.2097
2235 2 -20.4021 -3.54942 -11.9058
2073 2 -20.3787 -4.15947 -9.15026
2234 2 -20.2942 -2.66897 -10.679
2233 1 -20.4352 -2.63489 -11.6251
2072 2 -21.3289 -3.00849 -8.8968
2356 1 -21.6816 -5.76996 -8.67195
2358 2 -22.6375 -5.76584 -8.72077
2477 2 -19.1934 -1.67696 -8.55444
2462 2 -20.4755 -0.869391 -11.9904
2150 2 -21.2161 -6.47948 -10.8147
2149 1 -21.2248 -5.96795 -11.6237
2151 2 -22.1477 -5.93213 -11.8751
2218 1 -22.8595 -2.06404 -9.56582
2219 2 -22.9097 -2.37195 -10.4708
2220 2 -22.5082 -1.17619 -9.63356
362 5 -19.8418 -9.60282 -11.9628
361 4 -19.3115 -9.09609 -12.7308
2187 2 -25.5828 0.326379 -11.9421
2186 2 -24.4698 -0.434669 -11.2536
145 4 -24.4397 -8.12851 -9.93426
2476 1 -18.8344 -0.792103 -8.4883
4 4 -17.2982 -3.63972 -8.80075
3 5 -16.8347 -3.78512 -9.80309
1 4 -18.7851 -4.66508 -10.4676
2 5 -17.7396 -4.2703 -10.7671
938 3 -13.9191 -8.40979 -12.1628
941 4 -15.0274 -8.35983 -12.1536
937 5 -13.2972 -7.9244 -10.8818
939 4 -13.5813 -7.72397 -12.9344
935 5 -12.1677 -8.50245 -10.3235
942 5 -13.938 -6.86459 -10.2286
943 4 -14.9609 -6.55666 -10.5666
5 5 -15.5333 -3.37239 -10.1161
13 4 -15.5887 -4.30164 -13.2845
12 5 -15.9851 -3.96291 -12.3623
7 5 -15.119 -3.48012 -11.4309
10 4 -13.5882 -3.46483 -12.9028
8 3 -13.7403 -3.20254 -11.8366
11 4 -13.6771 -2.1029 -11.8868
9 4 -12.9585 -3.58336 -11.1839
14 5 -17.2559 -4.36922 -12.0902
15 4 -17.8392 -4.64079 -12.9626
6 4 -14.8787 -2.90969 -9.39381
364 4 -19.0649 -8.3092 -10.5242
363 5 -19.5603 -9.26151 -10.6763
936 4 -11.4362 -9.16444 -10.9027
2979 2 -11.1059 -1.18272 -13.3559
2679 2 -16.4211 0.206551 -13.0209
511 4 -9.48744 -9.80265 -13.0291
512 5 -8.80543 -9.85276 -12.2072
524 5 -8.67971 -8.75138 -11.3683
2597 2 -6.97162 -7.3868 -12.47
2598 2 -6.18444 -6.27525 -11.8092
2596 1 -6.8432 -6.43836 -12.4842
1288 4 -3.30437 -7.44735 -11.6179
522 5 -7.85304 -8.96937 -10.2572
933 5 -11.576 -7.99512 -9.17513
2713 1 -10.5261 -1.92999 -10.1706
2715 2 -10.5 -1.04828 -9.79897
2978 2 -10.6686 -1.34178 -11.9153
2910 2 -10.7854 -5.03781 -10.1406
2909 2 -11.4929 -6.14681 -10.8898
2977 1 -10.5131 -0.816036 -12.7
2908 1 -10.8152 -5.47828 -10.9899
2714 2 -10.2352 -2.4994 -9.45832
2808 2 -8.71271 -1.07877 -13.0998
3680 2 -9.58873 -4.71177 -12.1678
525 4 -9.18189 -7.82926 -11.6491
2806 1 -7.82797 -1.33139 -13.3638
2807 2 -7.73198 -2.23103 -13.0512
3679 1 -8.77888 -4.43832 -12.5986
3681 2 -8.26189 -5.24079 -12.6693
3837 2 -5.9863 -3.05081 -12.0175
3836 2 -7.29835 -3.80083 -11.9287
3835 1 -6.51245 -3.58822 -11.4254
2801 2 -4.65895 -1.16322 -12.1375
2800 1 -4.84465 -1.71391 -12.8981
2802 2 -5.64855 -1.34903 -13.268
2943 2 -7.42863 -2.63318 -10.1409
3516 2 -7.38896 -0.0951336 -9.87674
2564 2 -5.32685 -4.93654 -10.4069
2563 1 -4.99458 -5.82862 -10.3068
934 4 -10.6612 -8.42928 -8.75628
523 4 -7.73225 -8.17118 -9.46091
2527 1 -10.3902 -4.42034 -8.46253
2565 2 -4.06888 -5.71705 -10.0903
1287 5 -2.42831 -8.04795 -11.968
1278 5 -0.346068 -9.60002 -12.6694
1277 5 -0.235035 -8.22044 -12.7457
3495 2 -0.588718 -0.472517 -9.27416
3493 1 -0.959083 -0.00641021 -10.0237
3956 2 1.67075 -0.191986 -12.3443
3714 2 -2.7912 -2.06405 -12.0526
1289 5 -1.28974 -7.41904 -12.4166
1290 4 -1.16523 -6.36344 -12.2454
1276 4 0.741627 -7.72056 -12.8721
3712 1 -2.31972 -2.38149 -11.2825
3713 2 -2.16868 -1.59799 -10.7537
3494 2 -0.211568 0.154396 -10.5995
1279 4 0.559573 -10.1396 -12.9441
3008 2 -2.92359 -4.04931 -10.373
1521 4 -2.35177 -7.91378 -7.63517
3446 2 0.31298 -3.67966 -13.3503
1428 5 3.83775 -6.96083 -11.7669
1429 4 3.24631 -6.06045 -11.7723
1427 5 3.34389 -8.26298 -11.619
1426 4 2.33627 -8.4785 -11.1852
3424 1 3.23089 -2.96741 -12.5646
3426 2 2.62785 -3.57428 -12.9938
3447 2 0.802095 -4.70902 -12.3538
3425 2 3.89148 -2.77466 -13.2299
3232 1 0.500774 -4.82597 -10.5863
3233 2 0.662762 -3.91882 -10.3273
3471 2 2.40917 -2.84827 -9.54671
3470 2 2.2845 -2.60582 -11.0359
3469 1 1.81204 -2.50203 -10.2099
3234 2 -0.25626 -5.09288 -10.0648
3445 1 0.996515 -4.33562 -13.2134
1430 5 5.20682 -6.78127 -12.0527
3007 1 -2.65933 -4.83433 -9.89325
1526 4 -0.186988 -7.09218 -8.24113
1437 5 5.50528 -9.14379 -12.1758
1754 5 9.87264 -8.96731 -9.1255
1753 4 7.75621 -9.06871 -9.81164
1434 4 7.87019 -6.59103 -12.5059
1432 5 6.01361 -7.87885 -12.2456
1755 4 10.0098 -7.94477 -9.45007
1433 3 7.52752 -7.67723 -12.3008
1431 4 5.57876 -5.74775 -12.0871
1435 4 7.94314 -8.00053 -11.3907
1098 5 7.22246 -3.51917 -12.4025
1097 5 7.96715 -3.95189 -11.3124
1100 5 6.68635 -2.2329 -12.2862
1099 4 7.41144 -3.87698 -13.4098
1107 5 7.58092 -1.87811 -10.0946
1102 5 6.91308 -1.38343 -11.1868
1101 4 6.19462 -1.87486 -13.229
1103 3 6.08797 -0.076836 -11.0696
1109 5 8.09954 -3.1759 -10.1271
1105 4 6.73815 0.840992 -11.0418
1108 4 7.89678 -1.2049 -9.2951
1110 4 8.5365 -3.58014 -9.17818
1106 4 5.49528 0.00319998 -11.986
1096 4 8.5819 -4.85031 -11.4232
3903 2 10.585 -1.50451 -11.6485
3902 2 10.0769 -2.88736 -11.9971
3901 1 10.8824 -2.3923 -11.8476
1436 4 7.92642 -8.37073 -13.0527
1081 4 5.25301 -4.60617 -9.90992
4451 2 18.6113 -8.89017 -12.4058
3434 2 18.6203 -8.64058 -8.82847
3552 2 12.1253 -6.72169 -12.581
3550 1 11.2029 -6.81193 -12.3418
4307 2 14.1385 -8.01509 -12.2206
4308 2 13.7178 -7.1158 -11.0777
4306 1 13.9872 -7.09699 -11.996
3230 2 15.747 -6.99785 -9.41654
3229 1 16.529 -6.70403 -9.88386
3551 2 11.1057 -6.27651 -11.5543
3363 2 12.8291 -2.64416 -12.5713
3362 2 13.8862 -3.4032 -11.7977
3361 1 13.7651 -2.84461 -12.5656
3630 2 13.2096 -0.179655 -9.0327
3669 2 15.0936 -4.27861 -13.0044
3667 1 15.8141 -4.85035 -12.7395
3668 2 15.3862 -5.65145 -12.4373
3577 1 10.9147 -5.27934 -10.1502
3578 2 11.5104 -4.55001 -9.97849
3267 2 13.9813 0.392356 -11.8254
3266 2 14.167 -1.09617 -11.6211
3265 1 14.6236 -0.258599 -11.5427
3579 2 11.1048 -5.91253 -9.45797
3414 2 13.3645 -3.2902 -9.53511
3412 1 13.7864 -3.90347 -10.1368
3413 2 14.718 -3.84534 -9.92463
3710 2 16.8201 -1.90377 -12.146
3709 1 17.4046 -2.62746 -11.9204
3970 1 17.892 -7.1103 -12.2713
3861 2 16.9486 -3.5052 -10.4714
3971 2 17.6569 -6.42732 -12.8994
3972 2 17.2816 -6.9881 -11.5442
3433 1 18.6419 -7.79375 -8.38276
3859 1 16.5064 -3.87613 -9.7078
3860 2 16.4055 -4.80483 -9.91653
3231 2 17.2527 -6.90346 -9.28988
3711 2 16.9542 -3.4087 -12.2414
4439 2 19.022 -2.10227 -12.1736
1015 4 17.3825 -1.30073 -9.13488
4304 2 21.1748 -8.68236 -10.9701
1826 4 24.5167 -6.94016 -11.4883
1818 5 27.3623 -8.91524 -9.44175
1823 3 25.4621 -6.9501 -12.0156
1822 5 26.4042 -7.98336 -11.4597
1820 5 26.3214 -8.37368 -10.1731
1824 4 25.9014 -5.97334 -12.0096
4075 1 21.418 -4.59776 -12.5915
4076 2 21.3396 -5.46764 -12.1999
4258 1 21.0348 -6.5508 -8.90199
4077 2 22.2558 -4.61749 -13.054
4024 1 20.5569 -7.16053 -11.5699
4026 2 20.6633 -6.8669 -10.6651
4025 2 19.6157 -7.0989 -11.7331
4329 2 20.4628 -1.9573 -10.3734
4327 1 20.5173 -1.83541 -9.42556
4438 1 19.974 -2.01588 -12.223
4440 2 20.3027 -2.90589 -12.0961
4012 1 22.2775 -0.655247 -12.6713
4013 2 21.4231 -1.0744 -12.7745
4297 1 23.4541 -0.94113 -10.0648
4299 2 23.6943 -0.706233 -10.9611
4067 2 20.9348 -3.32104 -8.37047
4298 2 23.7126 -1.85882 -9.97968
4328 2 21.3874 -1.46353 -9.28102
4014 2 22.0844 0.18288 -12.2512
4483 1 23.8916 -3.35657 -12.4888
4484 2 23.6071 -3.34246 -11.5749
1825 4 25.3698 -7.13808 -13.0526
4485 2 23.4762 -2.58875 -12.8813
3983 2 22.7576 -3.56966 -9.0323
3982 1 23.4911 -3.64765 -9.64228
1821 4 25.3819 -8.19511 -9.7721
4066 1 21.4377 -3.91693 -7.81521
3984 2 23.98 -4.4104 -9.3334
4260 2 20.3088 -7.0812 -8.57376
4068 2 21.2019 -4.79102 -8.12604
1602 5 27.9216 -4.28004 -10.2501
1595 5 29.867 -3.14222 -9.55249
1592 5 28.4662 -2.19376 -11.2867
1604 5 27.6284 -3.26916 -11.1432
1605 4 26.692 -3.44561 -11.7477
1593 5 29.5924 -2.17776 -10.528
1591 4 28.2789 -1.35574 -12.0119
1594 4 30.3867 -1.51001 -10.8068
1597 5 29.0276 -4.25393 -9.43809
1603 4 27.4845 -5.23958 -10.5093
2388 2 -30.3618 -0.732531 -8.69304
2223 2 -27.1989 0.940579 -12.8388
2268 2 -30.7061 0.11419 -12.3217
2271 2 -27.6777 0.224377 -10.0034
2269 1 -27.7268 1.16134 -9.81384
2105 2 -30.336 2.42309 -11.2793
2067 2 -30.1613 5.29122 -9.568
2226 2 -27.5373 2.82421 -11.3753
2443 1 -30.0828 3.22308 -13.0881
2445 2 -30.4318 3.87376 -12.479
2444 2 -29.1459 3.41386 -13.1322
2065 1 -30.8366 4.82078 -10.0569
2066 2 -30.6714 3.8974 -9.86626
2106 2 -29.3678 1.84798 -10.2676
2104 1 -30.274 2.13964 -10.3672
2270 2 -26.9421 1.34297 -9.29658
172 5 -26.7273 6.35635 -10.4006
170 5 -27.2932 7.61559 -10.444
177 5 -27.2423 5.43677 -9.47136
168 5 -28.3437 7.97297 -9.5733
179 5 -28.2961 5.91371 -8.60534
167 5 -28.8335 7.14557 -8.63402
178 4 -26.8325 4.42615 -9.40032
171 4 -26.8403 8.33505 -11.0709
2224 1 -27.2418 2.83615 -12.2857
175 4 -25.5877 5.04478 -11.5103
2461 1 -20.6706 0.0619829 -11.8871
2185 1 -24.8956 0.422109 -11.2826
2225 2 -26.3091 3.04465 -12.2326
173 3 -25.4034 6.00174 -10.9924
2463 2 -19.8623 0.439575 -11.5404
2277 2 -24.1824 1.97876 -12.0919
2988 2 -22.6498 1.51882 -9.68495
176 4 -24.9663 6.6915 -11.7732
174 4 -24.6908 5.88414 -10.1849
481 4 -24.8573 2.80462 -9.65929
495 4 -24.7695 4.82396 -8.25077
2082 2 -22.8397 4.39493 -10.4941
2081 2 -21.8262 3.34588 -10.8992
2275 1 -24.331 2.85533 -12.4465
2276 2 -23.4536 3.19508 -12.6222
2080 1 -22.3613 3.63593 -10.1605
2987 2 -21.7293 0.570445 -10.4234
2862 2 -21.3599 4.06401 -8.24888
959 5 -23.1737 8.40812 -10.0676
957 5 -21.8549 7.98885 -10.1919
2128 1 -20.8273 2.75651 -12.4422
2130 2 -20.6934 1.82145 -12.597
952 5 -21.1827 7.30549 -9.1728
958 4 -21.3532 8.17483 -11.1525
2129 2 -19.9457 3.1292 -12.4467
2986 1 -22.0799 0.761094 -9.55332
3018 2 -19.5364 3.18001 -8.579
953 3 -19.9227 6.4878 -9.4251
956 4 -19.9994 5.38515 -9.46176
482 5 -24.7048 2.72231 -8.54908
954 4 -19.5491 6.78213 -10.3877
2352 2 -18.4969 -0.084782 -10.1125
3151 1 -18.5409 3.90712 -11.8242
2350 1 -18.4021 0.63222 -10.7395
3153 2 -18.7093 3.73291 -10.8981
3016 1 -18.8441 2.86891 -9.16232
3017 2 -19.1635 2.02656 -9.48586
2351 2 -17.4796 0.608249 -10.9938
955 4 -19.1458 6.77481 -8.75978
3152 2 -18.1974 4.80039 -11.8417
2677 1 -15.9813 0.698035 -12.3272
2339 2 -12.8105 2.89247 -11.7311
3177 2 -14.8673 0.152427 -10.9938
2338 1 -13.249 3.6097 -11.2734
2340 2 -12.6084 4.32091 -11.2722
2678 2 -16.139 1.6163 -12.5466
2157 2 -15.6921 3.93364 -13.0353
2155 1 -16.3016 3.19975 -13.1143
2825 2 -14.2299 4.84518 -12.0397
2824 1 -14.5067 5.57351 -12.5957
2156 2 -17.0826 3.48421 -12.6395
2826 2 -13.7097 6.08466 -12.7361
2162 2 -16.2548 6.16892 -12.3126
2163 2 -16.8235 6.00135 -10.9196
2161 1 -17.0749 6.20543 -11.8204
542 5 -13.5305 7.34767 -9.68512
541 4 -13.8321 6.30002 -9.70818
2630 2 -17.1844 4.40715 -9.11643
2629 1 -16.3041 4.72483 -9.3176
2877 2 -10.7484 7.85627 -12.7639
3175 1 -14.4859 0.0250456 -10.1252
3176 2 -14.2715 0.908423 -9.82531
2556 2 -13.8004 3.20075 -9.48229
2554 1 -13.9501 2.52861 -8.81742
2555 2 -14.8942 2.55139 -8.66147
3160 1 -13.089 8.26947 -12.9321
3162 2 -13.2855 8.55392 -12.0395
2883 2 -7.19492 0.534344 -12.7981
3208 1 -4.43749 0.227424 -10.768
2875 1 -10.0136 7.61313 -12.2007
2365 1 -11.0414 1.91796 -12.0041
2367 2 -10.8938 1.18406 -12.6006
2325 2 -10.4922 1.07521 -10.6594
2323 1 -10.097 0.824572 -9.82446
2366 2 -10.2903 2.49484 -12.143
3515 2 -8.31662 1.08358 -9.67187
2882 2 -6.56986 1.01391 -11.5054
2881 1 -6.73857 1.28043 -12.4091
3514 1 -7.39035 0.852428 -9.74125
3210 2 -4.02962 -0.110595 -9.97073
2324 2 -10.4789 1.42824 -9.18732
2954 2 -11.0052 3.28118 -8.01061
544 4 -11.4809 7.08655 -9.22543
2816 2 -10.4777 5.89049 -11.6138
2876 2 -9.61689 8.44747 -11.9502
2815 1 -10.8761 5.18801 -11.0999
2817 2 -10.2785 4.44729 -11.2022
2729 2 -5.96173 2.61248 -9.61064
3090 2 -4.70427 2.97628 -12.4474
3089 2 -3.25438 2.85099 -12.0302
3088 1 -4.06996 3.29998 -11.8078
2980 1 -8.6833 3.3361 -12.0489
2728 1 -5.58175 3.4705 -9.42181
2981 2 -8.27368 4.20002 -12.0032
2982 2 -7.96576 2.74156 -12.2678
2730 2 -4.94907 3.61297 -10.1258
2996 2 -9.66177 4.47925 -8.26425
2995 1 -10.5181 4.89467 -8.366
2997 2 -10.5071 5.25304 -9.25351
2965 1 -7.68081 5.96917 -11.5479
2966 2 -8.16191 6.5724 -12.1144
2967 2 -7.85753 6.28092 -10.6603
2928 2 -5.73415 5.11135 -8.4861
2927 2 -4.99165 6.36383 -8.90067
3095 2 -7.22425 4.00154 -8.73427
3275 2 -8.42039 6.4403 -8.4969
3276 2 -7.36025 7.51914 -8.56104
3274 1 -8.17001 7.22775 -8.98009
3596 2 -6.59583 7.3466 -11.9584
3094 1 -8.06305 4.04283 -8.27499
3013 1 -4.3387 7.5696 -9.98578
3015 2 -3.42962 7.57581 -10.2854
3955 1 0.935305 0.412695 -12.2458
3209 2 -3.80711 0.861462 -11.1098
3957 2 1.29679 1.26932 -12.4733
1351 4 -3.22964 5.63497 -11.6662
3904 1 -2.13362 1.63712 -12.1225
3906 2 -1.3741 1.60983 -12.7044
3905 2 -1.80469 1.31501 -11.2832
1365 4 -2.07842 7.36998 -12.9985
1362 5 -0.629847 7.66975 -11.4573
1364 5 -1.77443 7.11067 -12
1352 5 -2.29434 5.94356 -11.3982
1354 4 -2.19543 4.46561 -9.69032
1353 5 -1.73887 5.31794 -10.2765
1363 4 -0.154595 8.49915 -11.9606
1355 5 -0.617908 5.92425 -9.74883
1357 5 -0.14751 7.07399 -10.2983
1356 4 -0.296325 5.54822 -8.76818
2969 2 3.07482 3.04201 -13.0527
2968 1 2.16519 2.77264 -12.9252
2970 2 1.65392 3.56198 -13.1034
3689 2 0.679855 5.75698 -12.9546
3688 1 0.216577 4.92416 -13.0441
3690 2 -0.539958 5.00677 -12.4636
3384 2 2.80223 6.2838 -12.5598
3576 2 3.39759 5.45669 -8.13247
1359 4 1.09851 7.77201 -8.66783
3382 1 2.18405 6.64268 -13.1964
1360 4 1.26344 8.83445 -10.0598
3383 2 2.44233 7.55949 -13.2912
1361 4 -0.181243 8.91821 -9.17793
1358 3 0.570611 8.194 -9.48999
3574 1 3.80756 6.21515 -8.54827
3575 2 4.68128 6.25874 -8.15975
3725 2 2.4376 -0.465127 -9.907
3724 1 2.79941 0.330663 -9.51707
2606 2 0.731416 3.432 -9.60768
2605 1 1.63318 3.61316 -9.8727
2607 2 1.60475 3.62313 -10.8294
1104 4 5.48646 -0.00144629 -10.1315
3271 1 9.93233 0.282489 -12.3651
3273 2 9.70567 0.658998 -11.5148
3472 1 9.86167 1.22655 -9.67449
3473 2 9.9647 0.701901 -8.88054
3474 2 9.11078 1.79172 -9.49292
3272 2 9.09671 -0.0114065 -12.7279
3890 2 4.56393 4.70305 -12.0067
3889 1 4.82717 3.83513 -12.3127
3891 2 4.77002 3.27914 -11.5357
3852 2 7.65828 6.98324 -12.1511
3850 1 7.28947 6.31649 -11.5718
3851 2 7.57289 5.48494 -11.9518
3779 2 4.16129 6.23528 -10.2238
3780 2 5.18442 6.50679 -11.3061
3778 1 4.27335 6.24443 -11.1744
3357 2 3.63805 3.51464 -9.27477
3355 1 4.2838 2.82069 -9.40765
3356 2 3.76803 2.01476 -9.43402
780 4 5.48142 8.40803 -10.4542
3818 2 7.88858 7.16315 -9.89793
3612 2 6.69339 3.52216 -12.3607
3817 1 8.11565 7.40874 -9.00107
3819 2 9.02298 7.70854 -9.05675
3610 1 7.57236 3.42381 -11.9946
3611 2 7.43268 3.01045 -11.1427
4079 2 7.62214 3.59426 -8.83714
4080 2 6.34315 2.88265 -9.22403
4078 1 7.29599 2.81133 -9.28084
3293 2 8.97889 8.06172 -13.1309
2523 2 10.5461 3.53435 -13.0702
2521 1 10.0579 4.20605 -12.594
2522 2 9.25601 3.76564 -12.3125
3360 2 10.9741 2.66709 -9.7121
3259 1 10.5039 6.99579 -13.1711
3260 2 10.458 6.04147 -13.2295
3261 2 11.441 7.19024 -13.1521
3359 2 11.0148 3.79611 -10.7198
3358 1 11.1596 3.60259 -9.79366
3880 1 9.1984 5.00033 -8.28979
3881 2 9.96857 4.94864 -8.85582
3882 2 8.75664 5.80583 -8.55859
3962 2 10.5359 9.67312 -10.2076
3292 1 8.29097 8.60968 -12.7531
3239 2 11.5195 7.42052 -9.6499
3238 1 11.0185 8.02722 -9.10481
3294 2 8.72761 9.09389 -12.0523
3628 1 12.9384 0.723006 -8.8657
3629 2 12.8546 1.11326 -9.7357
1016 4 16.3414 0.0344327 -8.93176
3393 2 11.7106 1.0812 -12.0678
3391 1 12.5143 1.49023 -11.7469
3392 2 12.7262 2.15196 -12.4052
3190 1 13.3106 3.85485 -13.174
3192 2 14.2187 3.57464 -13.2883
3191 2 13.3481 4.81065 -13.2094
2549 2 13.0807 3.74805 -9.57497
2548 1 14.0214 3.91508 -9.63397
2550 2 14.3532 3.2208 -10.2033
3376 1 12.9257 6.38475 -10.4023
3377 2 13.2014 6.6315 -11.2851
3378 2 13.2985 5.51324 -10.2693
3928 1 16.0452 6.6597 -12.5871
3673 1 16.1682 3.96906 -12.8712
3674 2 16.098 4.91478 -12.7412
3701 2 14.2651 7.14609 -12.9804
3700 1 13.3247 7.31369 -12.9184
3675 2 17.0494 3.75 -12.5684
3930 2 16.4549 6.50753 -11.7355
3441 2 17.8745 9.36611 -9.24314
3458 2 14.2272 4.21656 -7.69822
1531 4 17.0421 1.39982 -10.5912
1013 3 17.2433 -0.430776 -8.5553
1533 5 18.8475 2.49483 -11.1036
1542 5 18.0985 4.21509 -9.00676
1544 5 17.4229 3.01397 -9.22417
1534 4 19.137 1.78224 -11.9169
1532 5 17.7567 2.19984 -10.326
1535 5 19.5457 3.67276 -10.7594
1543 4 18.0224 4.65855 -8.01738
1545 4 16.6806 2.7208 -8.55772
1538 3 19.8964 5.91614 -9.40987
1540 4 19.0975 6.68257 -9.324
1537 5 19.1919 4.58334 -9.7478
1541 4 20.4732 5.79445 -8.47002
1907 5 27.8808 2.29952 -11.3248
1906 4 28.7738 1.62462 -11.4508
1539 4 20.5513 6.2553 -10.2283
1920 4 26.447 0.940924 -12.1456
1536 4 20.2741 3.9231 -11.5362
1766 4 21.956 1.79726 -10.1845
1919 5 26.6655 1.91739 -11.8176
1765 4 23.4972 2.04534 -9.43768
1763 3 22.4911 2.39448 -9.53506
1910 5 27.0272 4.38617 -10.4922
1917 5 25.6254 2.8488 -11.6677
1918 4 24.6687 2.46294 -11.8369
1764 4 22.5823 3.38161 -9.968
1761 4 22.981 4.08762 -7.19281
1912 5 25.8307 4.08813 -11.081
1768 4 20.5636 0.851629 -8.66009
1762 5 21.8319 2.46326 -8.11014
1913 3 24.7575 5.23035 -11.1703
1914 4 24.6112 5.73135 -10.2868
1915 4 24.9473 5.85927 -12.024
1916 4 23.8596 4.67135 -11.5157
1908 5 28.0431 3.49276 -10.6403
1909 4 28.9178 3.5937 -9.97416
1911 4 27.1165 5.34964 -9.98795
1720 4 30.4741 7.2145 -11.6141
1721 4 29.4006 6.61108 -10.5309
1717 5 29.7629 8.75543 -10.2476
1718 3 29.578 7.52998 -11.1273
1716 4 28.7966 7.84891 -8.60596
1719 4 28.7261 7.6858 -11.8448
1715 5 29.1171 8.7681 -8.99038
169 4 -28.7935 8.93595 -9.86534
960 4 -23.8097 8.70217 -10.9611
709 4 -28.1436 10.9131 -11.179
708 5 -27.2411 11.2504 -10.6116
710 5 -27.2051 11.2032 -9.24911
706 4 -26.137 11.7772 -12.3821
720 4 -24.1517 12.4064 -11.3163
707 5 -26.2021 11.8205 -11.3301
888 5 -21.0598 11.3307 -11.238
887 5 -20.6158 10.8209 -12.4207
889 4 -22.0538 11.1075 -10.8598
886 4 -21.3647 10.5786 -13.2504
890 5 -20.1189 11.7562 -10.3134
719 5 -25.0733 12.2833 -10.7171
891 4 -20.3646 12.2156 -9.36395
717 5 -24.9329 12.1789 -9.36585
892 5 -18.7918 11.7302 -10.5153
900 4 -18.9237 10.136 -13.4834
899 5 -19.2106 10.7765 -12.6478
711 4 -27.9756 10.6651 -8.7904
712 5 -25.9919 11.5951 -8.64289
718 4 -23.9538 12.2613 -8.93064
555 4 -15.4666 8.1005 -10.144
3161 2 -13.7892 8.64738 -13.4641
897 5 -18.2504 11.213 -11.6703
894 4 -17.0015 12.2904 -9.56823
893 3 -17.9947 11.8969 -9.25734
896 4 -17.896 10.9464 -8.82193
554 5 -14.4111 8.3738 -9.97327
543 5 -12.2061 7.77531 -9.55492
545 5 -11.7382 9.08288 -9.63721
552 5 -14.0052 9.64962 -10.178
553 4 -14.7604 10.515 -10.1007
547 5 -12.641 10.0615 -10.0378
548 3 -12.1354 11.4536 -10.5623
549 4 -11.3352 11.2981 -11.269
550 4 -12.8335 11.8988 -11.2778
898 4 -17.1467 11.2335 -11.7771
895 4 -18.4963 12.4931 -8.48437
2465 2 -7.37279 13.082 -11.8346
546 4 -10.7249 9.3691 -9.48244
551 4 -11.6194 12.0074 -9.75343
2600 2 -8.26322 10.8337 -11.3312
2599 1 -8.45498 9.89763 -11.3881
2601 2 -7.59781 9.48244 -11.4836
2464 1 -7.09961 12.4044 -11.2162
2466 2 -7.21364 12.8057 -10.3547
3258 2 -8.19934 11.8554 -8.69953
3256 1 -7.75023 12.6958 -8.60836
3772 1 -8.28744 10.0541 -8.52999
3773 2 -8.35147 9.50972 -9.31472
3597 2 -5.52643 8.2477 -11.3785
3595 1 -6.26175 8.243 -11.9913
3014 2 -4.44554 8.40229 -9.52596
2702 2 -6.22123 11.3628 -12.4016
2703 2 -5.88639 9.93886 -12.7917
2701 1 -5.67463 10.8496 -12.9966
3206 2 -3.93698 11.532 -12.9338
3107 2 -3.58143 12.0677 -10.2805
3205 1 -3.1066 11.7803 -12.5275
3207 2 -3.11297 12.7375 -12.534
2588 2 -2.37137 9.9754 -11.066
2587 1 -2.1938 9.94447 -10.1259
2589 2 -1.26173 10.1491 -10.0509
3196 1 0.132186 11.2941 -11.4544
3197 2 0.766596 10.8958 -12.0503
3198 2 -0.507857 11.7126 -12.0301
3123 2 2.8811 9.37163 -12.0691
777 5 4.06178 9.8576 -9.65659
772 5 3.72315 11.26 -9.60363
778 4 3.91962 9.28689 -8.69411
773 3 2.61726 11.7598 -8.7123
774 4 1.6127 11.6914 -9.19103
3121 1 2.32275 9.38652 -12.8465
3122 2 2.64021 10.1322 -13.3558
3653 2 -2.36464 9.05789 -8.27489
766 4 6.20305 9.87628 -12.3719
779 5 4.95515 9.343 -10.6287
767 5 5.47455 10.1976 -11.5794
768 5 5.18763 11.5374 -11.5176
771 4 4.19518 13.1467 -10.4441
770 5 4.29142 12.0927 -10.5266
769 4 5.47333 12.2449 -12.4192
3961 1 9.96328 10.1142 -10.8352
3854 2 12.7387 13.0986 -12.7728
3300 2 11.6786 9.98841 -11.6362
3963 2 9.6613 10.8974 -10.3752
4174 1 8.68882 12.063 -9.29846
3298 1 12.6341 9.9484 -11.5967
4175 2 7.76537 12.2694 -9.44277
3702 2 13.2605 8.24311 -12.6987
3439 1 18.0961 10.0048 -9.92082
3440 2 17.573 10.7764 -9.70358
3853 1 13.4318 12.7409 -12.218
3855 2 13.0686 12.768 -11.3328
4060 1 13.3732 13.132 -9.07137
3929 2 16.211 7.58422 -12.7715
4384 1 15.8359 9.29831 -11.3755
4385 2 15.2056 9.54128 -10.6974
4386 2 16.651 9.13898 -10.8995
3604 1 15.9387 12.1563 -12.3522
3606 2 15.051 12.5058 -12.4301
3605 2 15.8368 11.2126 -12.4757
3301 1 14.2725 10.1743 -9.11026
3302 2 13.4332 10.562 -8.86217
3299 2 12.9265 10.7352 -12.0567
3632 2 16.4185 13.0475 -9.19537
3303 2 14.9183 10.8518 -8.90988
3631 1 16.634 12.1991 -9.58259
3633 2 16.5284 12.3314 -10.5247
4202 2 19.5983 11.6442 -9.40083
4201 1 19.5925 12.5291 -9.03601
1214 5 24.3893 9.69493 -9.42903
1213 4 24.7497 8.36969 -11.1352
1212 5 24.0864 9.13376 -10.6723
1215 4 25.3728 9.49017 -9.03127
1207 5 22.743 9.19765 -11.1125
3639 2 21.2539 13.1612 -8.85834
1205 5 21.7323 9.73271 -10.3054
1202 5 23.3555 10.104 -8.54283
1206 4 20.725 9.81511 -10.6918
3638 2 22.728 13.1666 -9.20307
1210 4 21.2521 8.67477 -12.7031
1208 3 22.2978 8.38651 -12.3252
1211 4 23.0665 8.48537 -13.1254
1209 4 22.2812 7.37528 -11.9882
3637 1 22.123 13.2367 -8.46458
1203 5 22.0668 10.198 -9.01608
1725 4 31.0258 11.9998 -9.97989
1722 5 30.4012 9.89646 -10.6083
1723 4 30.7153 9.98657 -11.5981
1724 5 30.3809 11.1202 -9.85702
150 4 -25.6732 -10.9246 -6.05616
2332 1 -29.8544 -10.0861 -6.03593
2333 2 -29.5029 -10.9625 -5.87931
2123 2 -30.1573 -9.55686 -4.27808
2198 2 -29.9929 -12.7886 -5.19373
2199 2 -28.5268 -13.143 -5.06453
2197 1 -29.1573 -12.7342 -5.65744
2288 2 -27.6352 -11.6785 -3.30152
2115 2 -29.9481 -12.4499 -2.37436
2113 1 -30.8533 -12.1539 -2.27781
2114 2 -30.9635 -12.0219 -1.33618
2122 1 -30.1238 -9.33389 -3.34782
2124 2 -30.5477 -10.0713 -2.90883
2334 2 -29.8408 -9.98867 -6.98807
2287 1 -28.0237 -12.5492 -3.21693
2417 2 -27.4745 -8.92705 -1.28559
2202 2 -29.4732 -8.89458 -1.64097
2200 1 -29.2512 -9.19477 -0.759595
2126 2 -28.8842 -12.7642 0.331119
2125 1 -28.1857 -12.934 -0.300935
2455 1 -26.9929 -9.84426 -4.37854
2456 2 -27.899 -9.86652 -4.68632
149 5 -25.2317 -11.0123 -7.0614
136 4 -26.1698 -12.9222 -7.4935
147 5 -24.6591 -9.99026 -7.72158
2289 2 -27.7147 -12.8685 -2.36914
2416 1 -26.5896 -9.06007 -1.62553
148 4 -24.5665 -9.03599 -7.1716
368 3 -20.7195 -12.3354 -8.84083
369 4 -19.8187 -12.9307 -8.78712
2457 2 -27.0639 -9.82818 -3.42412
379 4 -19.4736 -13.2579 -5.36109
377 5 -19.6161 -11.2807 -4.51275
378 5 -19.0862 -12.2144 -5.42521
2047 1 -22.6491 -11.3725 -1.22658
1997 2 -25.4765 -8.70282 -4.67668
2049 2 -23.4427 -11.1059 -0.762562
1998 2 -24.033 -9.15313 -4.74936
2453 2 -22.327 -10.7104 -3.74989
2127 2 -27.3895 -12.6281 0.133405
2048 2 -21.9405 -10.9188 -0.770222
2452 1 -22.3888 -9.92389 -4.29194
1996 1 -24.5792 -8.36973 -4.68482
370 4 -20.7934 -11.9044 -7.82986
2454 2 -21.4823 -9.63738 -4.40335
376 4 -19.9441 -11.6375 -3.49212
380 5 -18.119 -11.8304 -6.33107
381 4 -17.8311 -12.4447 -7.18427
389 5 -19.2211 -9.96282 -4.61628
62 5 -16.9321 -10.7101 -1.9896
386 4 -17.1723 -9.17568 -8.06606
387 5 -18.2878 -9.59837 -5.5909
382 5 -17.7038 -10.5042 -6.399
388 4 -18.2361 -8.51768 -5.90644
788 3 -12.83 -12.3057 -4.5713
791 4 -13.5295 -11.4906 -4.24578
789 4 -13.3243 -12.8738 -5.42972
790 4 -12.6423 -12.9647 -3.75096
67 5 -14.2012 -11.1993 -1.34026
68 3 -12.8824 -11.3388 -0.689752
383 3 -16.8161 -10.1118 -7.53367
384 4 -15.8218 -9.97904 -7.20425
385 4 -16.9209 -10.8873 -8.3009
71 4 -12.1064 -11.3848 -1.46142
65 5 -14.6808 -9.89199 -1.65126
72 5 -15.1176 -12.2566 -1.38777
69 4 -12.6412 -10.4734 -0.0852887
366 4 -19.6936 -9.81313 -8.51386
63 5 -16.0383 -9.6113 -1.94352
61 4 -17.9663 -10.4362 -2.18557
794 5 -9.55354 -11.8836 -6.32536
792 5 -10.9349 -12.0677 -6.17047
793 4 -11.5698 -12.4915 -7.03754
787 5 -11.557 -11.6649 -4.99584
785 5 -10.7597 -11.0179 -4.08293
783 5 -9.40365 -10.8767 -4.18548
786 4 -11.2302 -10.4531 -3.28865
2669 2 -8.46546 -9.14644 -6.39392
795 4 -9.02872 -12.343 -7.19228
782 5 -8.78885 -11.3253 -5.32254
784 4 -8.84579 -10.2048 -3.48103
781 4 -7.70369 -11.3462 -5.43788
519 4 -7.12372 -11.0695 -7.91987
689 5 -4.3715 -10.952 -4.81858
687 5 -5.31677 -10.756 -3.82503
683 3 -5.80486 -10.6431 -1.28427
685 4 -6.4056 -11.3955 -0.709618
682 5 -5.11641 -11.2767 -2.51434
684 4 -6.5651 -9.97469 -1.66682
680 5 -4.01166 -12.1088 -2.22184
686 4 -5.13561 -9.9613 -0.723363
688 4 -6.11471 -10.0852 -3.94816
690 4 -4.47396 -10.3694 -5.70501
565 4 -9.02242 -13.0162 1.80335
568 4 -8.70434 -11.3813 -1.49505
567 5 -9.23634 -10.8045 -0.671725
1516 4 -3.52183 -11.9448 -7.90709
1518 5 -3.07812 -9.88715 -7.7717
681 4 -3.80202 -12.349 -1.19605
677 5 -3.29451 -11.7814 -4.47379
678 5 -3.09845 -12.39 -3.2287
679 4 -2.15483 -12.9747 -3.06231
1517 5 -2.8223 -11.1565 -8.16266
1529 5 -1.52728 -11.4788 -8.56295
3295 1 -1.30335 -9.92156 -3.19574
3297 2 -1.66128 -10.7709 -3.45423
676 4 -2.57209 -12.0238 -5.25539
1530 4 -1.29186 -12.5472 -8.69872
979 4 2.60952 -11.7719 -8.16788
1380 4 0.770564 -9.90297 -1.60566
1366 4 0.954311 -11.6524 -3.552
1379 5 1.45855 -10.7414 -1.53653
1377 5 2.217 -10.8547 -0.365459
1367 5 1.614 -11.6119 -2.67969
976 4 2.79509 -9.69935 -9.56174
1370 5 3.46875 -12.5551 -1.5521
1368 5 2.69775 -12.529 -2.66279
978 5 3.10793 -10.8448 -7.74426
1527 5 -0.571173 -10.476 -8.73877
1291 4 2.46289 -9.19542 -5.36907