LAMMPS data file via write_data, version 2 Aug 2023, timestep = 61000, units = real

4500 atoms
5 atom types
4064 bonds
6 bond types
4027 angles
5 angle types
3990 dihedrals
3 dihedral types
798 impropers
1 improper types

-35 35 xlo xhi
-17.4 17.4 ylo yhi
-17.4 17.4 zlo zhi

Masses

1 15.9994
2 1.008
3 12.011
4 1.008
5 12.011

Pair Coeffs # lj/cut/tip4p/long

1 0.1852 3.1589
2 0 0
3 0.0663016 3.58118
4 0.0282937 2.37341
5 0.0734574 3.52053

Bond Coeffs # harmonic

1 100 0.9572
2 349.274 1.09
3 399.904 1.39
4 400.057 1.4
5 299.844 1.52
6 0 0

Angle Coeffs # harmonic

1 50 104.52
2 50.1709 108
3 45.1871 120
4 50.1166 120
5 55.0234 111.4

Dihedral Coeffs # harmonic

1 9.99044 -1 2
2 0.239006 1 6
3 0 1 1

Improper Coeffs # harmonic

1 20.0075 0

Atoms # full

139 10 4 0.123 -26.100356357746712 -11.11324316257866 -12.795429501373752 0 0 0
138 10 5 -0.08699999999999999 -26.168343705725555 -10.714526100662695 -11.765055700800133 0 0 0
2133 179 2 0.5564 -27.53315195629627 -8.731785880303637 -12.416380433380075 0 0 0
149 10 5 -0.08699999999999999 -27.460220730005364 -10.386445042858714 -9.718319405741191 0 0 0
136 10 4 0.134 -27.846623235299102 -11.942402589239775 -11.284145092748775 0 0 0
137 10 5 -0.184 -27.28850799880932 -11.039069800557769 -10.997528565036482 0 0 0
150 10 4 0.123 -28.426093374109055 -10.352772064020911 -9.280632571760476 0 0 0
140 10 5 -0.271 -25.220448798658648 -9.869669882794447 -11.25143808097494 0 0 0
141 10 4 0.147 -24.42175393249669 -9.489647277086103 -11.888542472449027 0 0 0
142 10 5 0.296 -25.412979766709615 -9.277462011233771 -10.011028974915497 0 0 0
147 10 5 -0.271 -26.51356073854096 -9.508678690953943 -9.277164515157988 0 0 0
373 25 4 0.147 -20.22152587957708 -10.133443617154361 -10.35405510058685 0 0 0
145 10 4 0.123 -24.310645193833025 -9.032391829100487 -8.168434259736596 0 0 0
144 10 4 0.123 -24.13076063167905 -7.7755933504043835 -9.360145684307668 0 0 0
143 10 3 -0.439 -24.17484834273793 -8.890614706297498 -9.241260198355816 0 0 0
146 10 4 0.123 -23.29073631512403 -9.38513975203865 -9.715624817973005 0 0 0
148 10 4 0.147 -26.43147159359901 -9.19507777991076 -8.199697050239434 0 0 0
372 25 5 -0.271 -19.552237488250768 -9.287439611964666 -10.105727895796024 0 0 0
375 25 4 0.123 -18.680549860511285 -8.771942820824153 -12.056788065475379 0 0 0
2131 179 1 -1.1128 -27.57530966108428 -8.333721161607128 -13.285862477355307 0 0 0
2132 179 2 0.5564 -28.456375861363615 -7.963228784329785 -13.337723303524927 0 0 0
2206 204 1 -1.1128 -29.987470243761248 -6.943350415955931 -13.339700555022835 0 0 0
2381 262 2 0.5564 -26.91582479736988 -6.681751636245384 -13.472722178593774 0 0 0
2075 160 2 0.5564 -28.51349248430674 -3.755757368970689 -13.444085047913676 0 0 0
2074 160 1 -1.1128 -29.18151214821776 -4.424912965974386 -13.295046744319025 0 0 0
2076 160 2 0.5564 -29.925104122257693 -3.944731726481345 -12.930727025734615 0 0 0
2208 204 2 0.5564 -30.926403821685998 -7.02769591257815 -13.505596340083294 0 0 0
2207 204 2 0.5564 -29.83971715030879 -6.0001355558184875 -13.270804964474992 0 0 0
2172 192 2 0.5564 -27.48540406101093 -1.580642312765671 -13.35046083156467 0 0 0
2387 264 2 0.5564 -29.85215975239187 -0.7289925965673277 -10.126229624763752 0 0 0
2145 183 2 0.5564 -27.72583177917307 -1.4642893698726058 -9.076928370593922 0 0 0
2180 195 2 0.5564 -27.07207038345738 -5.796588117163063 -11.625967866240424 0 0 0
2316 240 2 0.5564 -30.968704842203593 -2.137526288833242 -11.9512971094566 0 0 0
2314 240 1 -1.1128 -31.04655650668259 -2.5712489849887517 -12.801035613116092 0 0 0
2315 240 2 0.5564 -31.006699652963743 -1.858568871074298 -13.438789690347143 0 0 0
2221 209 1 -1.1128 -28.353982863844486 0.09778720103120711 -13.294892617397089 0 0 0
2144 183 2 0.5564 -27.829702606915824 -1.6559300002463955 -10.575053829182183 0 0 0
2386 264 1 -1.1128 -30.651839835428728 -0.5418865813838712 -10.617895092159953 0 0 0
2143 183 1 -1.1128 -28.17004756291873 -1.1258627583334764 -9.854341774393518 0 0 0
2222 209 2 0.5564 -29.300835251079704 0.0801548250115112 -13.434145951749901 0 0 0
2267 224 2 0.5564 -31.01001763694577 0.0753539851972775 -12.424090917542413 0 0 0
2170 192 1 -1.1128 -27.229657886263624 -2.5029431076861286 -13.364135255966707 0 0 0
2382 262 2 0.5564 -27.326420885594246 -5.226074151323293 -13.407078574602473 0 0 0
2181 195 2 0.5564 -28.170357376141574 -5.18641923622634 -10.781364594562401 0 0 0
2179 195 1 -1.1128 -27.29977751026495 -5.579842889450557 -10.721864555177945 0 0 0
2266 224 1 -1.1128 -31.024638299474496 0.22877227896009375 -13.368803002039057 0 0 0
2388 264 2 0.5564 -31.016171077176992 0.23643824828508886 -10.196344348653598 0 0 0
409 28 4 0.123 -29.35303379920505 -4.01397228971692 -8.893006588422553 0 0 0
411 28 4 0.147 -28.995524755101425 -6.166673188186703 -7.71248261211604 0 0 0
2380 262 1 -1.1128 -26.55922579996753 -5.797977721626224 -13.383208662410652 0 0 0
2336 247 2 0.5564 -25.803119392662616 -5.402860196014584 -9.437383894855053 0 0 0
2187 197 2 0.5564 -24.16503543445274 0.13005356942248852 -13.207305301889312 0 0 0
374 25 5 -0.08699999999999999 -18.64649973537834 -8.674976777607501 -10.973643141010957 0 0 0
2171 192 2 0.5564 -26.27292640145098 -2.486348185145354 -13.389061240421807 0 0 0
2079 161 2 0.5564 -24.964581742650893 -5.08822451787822 -13.485590251807093 0 0 0
2078 161 2 0.5564 -23.90588998001659 -4.776477141207896 -12.449308203954766 0 0 0
2032 146 1 -1.1128 -25.821635306094013 -2.2245546757828762 -8.283484026008805 0 0 0
2077 161 1 -1.1128 -24.10076720040468 -4.6889736418564905 -13.382366613993069 0 0 0
2274 226 2 0.5564 -22.96164438377779 -1.8817456240313466 -13.355887054014989 0 0 0
2071 159 1 -1.1128 -21.407867015090964 -2.752475964301952 -10.233433925745747 0 0 0
2273 226 2 0.5564 -24.13883170552753 -2.8264585334381236 -13.239086080971436 0 0 0
2272 226 1 -1.1128 -23.90150430608695 -1.9013239564996127 -13.175576641478417 0 0 0
2235 213 2 0.5564 -21.045733735675622 -3.135882649106253 -13.41561727387639 0 0 0
2073 159 2 0.5564 -21.800491805423928 -3.6044039382310196 -10.42394996122761 0 0 0
2234 213 2 0.5564 -21.01217983096655 -2.3087544970283855 -12.148088840952303 0 0 0
2233 213 1 -1.1128 -21.14306960760722 -2.239681074689237 -13.093778305001953 0 0 0
2072 159 2 0.5564 -22.151710802779313 -2.18565790157419 -10.029361471494292 0 0 0
2356 254 1 -1.1128 -23.37648415689914 -5.054695437464039 -10.852580434618082 0 0 0
2358 254 2 0.5564 -24.00362441331398 -5.021305887563006 -10.130214802839733 0 0 0
2477 294 2 0.5564 -20.28369466002331 -1.416567358581259 -9.753686939902911 0 0 0
2462 289 2 0.5564 -20.6638615879388 -0.21646406561779874 -13.348288934568869 0 0 0
2357 254 2 0.5564 -22.64469377030823 -5.568870673895959 -10.511496152242632 0 0 0
2476 294 1 -1.1128 -19.528310558883874 -0.903648860624487 -9.466386904015355 0 0 0
2150 185 2 0.5564 -21.067511169276425 -5.629855814935522 -12.638539830117415 0 0 0
2149 185 1 -1.1128 -21.262362333237768 -5.006504407844899 -13.338324001984944 0 0 0
2151 185 2 0.5564 -22.218382110615707 -4.967846462276415 -13.365956385895615 0 0 0
2034 146 2 0.5564 -25.083873562248357 -1.9816678200706241 -8.842899188280771 0 0 0
2461 289 1 -1.1128 -20.842114494207898 0.6107649351544618 -12.900907868646641 0 0 0
2502 302 2 0.5564 -20.806287220772692 -7.2147996472279425 -9.270161306928737 0 0 0
2218 208 1 -1.1128 -23.51525168716047 -1.1803106362997315 -10.323090786645928 0 0 0
2219 208 2 0.5564 -23.592479984767404 -1.2101535816066666 -11.276703392731822 0 0 0
2500 302 1 -1.1128 -21.454244655894534 -6.544953889281275 -9.488540783034242 0 0 0
2220 208 2 0.5564 -23.444165385002748 -0.24823912537001877 -10.117126563041433 0 0 0
2185 197 1 -1.1128 -23.73650618700177 0.9582834146797672 -13.423244692047177 0 0 0
2186 197 2 0.5564 -22.806203512276017 0.7398680395740118 -13.478593424070155 0 0 0
2335 247 1 -1.1128 -25.09726415346758 -5.070395436164334 -8.882886447679036 0 0 0
2478 294 2 0.5564 -18.787607396055122 -1.5054707083941605 -9.539878285716405 0 0 0
4 1 4 0.123 -18.742563947773856 -2.396103219879914 -11.670848734269741 0 0 0
2912 439 2 0.5564 -18.273910231445033 1.8472750043327815 13.419845002479743 0 0 0
531 36 4 0.147 -17.738141183377273 -10.129011037615928 5.473691920931269 0 0 0
2223 209 2 0.5564 -28.11485529550175 1.0199502133414493 -13.387979821415351 0 0 0
2268 224 2 0.5564 -30.973016263317458 1.1803873473379545 -13.45822212663978 0 0 0
2271 225 2 0.5564 -28.19584018915067 0.9979978306459028 -11.629211926434865 0 0 0
2269 225 1 -1.1128 -28.104660964848964 1.5235950720246312 -10.834437945998634 0 0 0
2105 170 2 0.5564 -30.785759715770823 2.547433864530281 -11.345282668444876 0 0 0
2067 157 2 0.5564 -30.974096413001067 6.923439305997649 -12.94623904308537 0 0 0
2226 210 2 0.5564 -27.54214807812029 2.4573272416832936 -12.410875571263851 0 0 0
2443 283 1 -1.1128 -30.542619680060486 3.1629506330224273 -13.32626862741232 0 0 0
2445 283 2 0.5564 -30.937974805536413 4.034528657510735 -13.342939370210681 0 0 0
2444 283 2 0.5564 -29.603650995076613 3.323518673705596 -13.420010523036757 0 0 0
2224 210 1 -1.1128 -27.46170844678574 2.5864954234811477 -13.355903045452045 0 0 0
2065 157 1 -1.1128 -30.975369280261514 6.093447100891987 -12.469433952836702 0 0 0
2066 157 2 0.5564 -30.429422749017306 6.257563063506867 -11.70051253911063 0 0 0
2106 170 2 0.5564 -30.210986897856532 2.266789204439698 -9.97314203360796 0 0 0
2104 170 1 -1.1128 -31.02671116481884 2.2355344059051245 -10.47299088735992 0 0 0
2270 225 2 0.5564 -28.147720398152615 0.8879237732475411 -10.120085282697579 0 0 0
2225 210 2 0.5564 -26.65069388713871 3.08372119536812 -13.461986996611277 0 0 0
172 12 5 0.296 -27.90820557610045 6.9408635549549835 -10.8736848826042 0 0 0
170 12 5 -0.271 -28.87747449034166 7.835989286305329 -10.475551450662639 0 0 0
177 12 5 -0.271 -27.836342902174536 5.653301015755204 -10.4069816125084 0 0 0
168 12 5 -0.08699999999999999 -29.736467925586687 7.361759664597933 -9.476589565684671 0 0 0
179 12 5 -0.08699999999999999 -28.782222204073367 5.138438423704994 -9.507168568072512 0 0 0
167 12 5 -0.184 -29.72959909713622 6.007137651827388 -9.034282945334986 0 0 0
178 12 4 0.147 -26.871687908040087 5.197108476990741 -10.486854457386574 0 0 0
171 12 4 0.147 -29.08402659201854 8.76255474675299 -10.954334298896825 0 0 0
169 12 4 0.123 -30.57578784738247 8.054804225208645 -9.20916151707764 0 0 0
173 12 3 -0.439 -27.09510151305823 7.440366407977091 -11.99621055681265 0 0 0
175 12 4 0.123 -27.674080121518937 8.07423350222583 -12.698010642984274 0 0 0
2463 289 2 0.5564 -20.161036574067445 0.6730361384137225 -12.231216164959775 0 0 0
2277 227 2 0.5564 -24.354225059177313 3.0651918142080192 -13.363758631877168 0 0 0
2988 464 2 0.5564 -22.819175742696896 1.9893390398929263 -10.925784286956196 0 0 0
176 12 4 0.123 -26.22132616898816 7.9142665279387465 -11.648806154630215 0 0 0
174 12 4 0.123 -26.80948568436454 6.494093995243691 -12.482812543603574 0 0 0
481 33 4 0.134 -25.6194546174953 1.3018530199830798 -9.244299315935768 0 0 0
482 33 5 -0.184 -25.153852699016955 1.9028430600197397 -8.430434455571385 0 0 0
954 64 4 0.123 -18.56466952200189 8.377633590190142 -9.320069467374102 0 0 0
495 33 4 0.123 -24.795931825093614 3.599563938652977 -9.767927634717084 0 0 0
2082 162 2 0.5564 -22.33177628143431 4.4218516393837595 -10.78610669681067 0 0 0
2081 162 2 0.5564 -22.436056845341 3.8609377677568375 -12.188389241304984 0 0 0
2275 227 1 -1.1128 -24.932874856247516 3.8216826711370286 -13.459245889655763 0 0 0
2276 227 2 0.5564 -24.52412990226979 4.505046797541568 -12.92804642724747 0 0 0
2080 162 1 -1.1128 -22.871816789373575 4.4534408422514025 -11.575783956185607 0 0 0
494 33 5 -0.08699999999999999 -24.690863031119708 3.183562819006488 -8.702017744567966 0 0 0
2987 464 2 0.5564 -21.590395605129377 1.498360764025099 -10.19030158382822 0 0 0
960 64 4 0.123 -23.38542568595298 7.002191020896796 -11.177234759979605 0 0 0
2860 422 1 -1.1128 -21.160086791820877 4.4207461207266086 -8.961481716744796 0 0 0
2862 422 2 0.5564 -21.978388581664696 4.851380778140152 -8.714160579253134 0 0 0
947 64 5 -0.184 -23.242298817764265 7.502875606596429 -9.114667369943167 0 0 0
959 64 5 -0.08699999999999999 -22.684052415940304 7.392438256124949 -10.397661361695624 0 0 0
957 64 5 -0.271 -21.32063410615362 7.489479863652122 -10.56114094876877 0 0 0
2128 178 1 -1.1128 -21.201319506770254 3.5145903548567308 -13.423644530369382 0 0 0
2130 178 2 0.5564 -20.777953589366447 2.6567642189571163 -13.457222227476116 0 0 0
948 64 5 -0.08699999999999999 -22.469088573609348 7.922589125962509 -8.010055197296715 0 0 0
952 64 5 0.296 -20.54052117997357 7.714831171959888 -9.435252742549944 0 0 0
946 64 4 0.134 -24.344195143448818 7.208048477428194 -8.9242600792327 0 0 0
950 64 5 -0.271 -21.136976153408394 7.995139903688659 -8.181555674524025 0 0 0
958 64 4 0.147 -20.879264038406056 7.160733598537012 -11.431232095457103 0 0 0
2129 178 2 0.5564 -20.477013839991923 4.137500340574455 -13.363675517794448 0 0 0
3018 474 2 0.5564 -19.297590226483432 4.5071955405396675 -9.648896628073793 0 0 0
2986 464 1 -1.1128 -22.53274029930794 1.3515776511109057 -10.271989998241311 0 0 0
953 64 3 -0.439 -19.079042707437903 7.444980948112897 -9.503875129900884 0 0 0
2423 276 2 0.5564 -18.076655140652427 -0.14628563655392934 -2.2790937809729646 0 0 0
2352 252 2 0.5564 -18.750606188663287 0.5545521619215532 -10.47673358239855 0 0 0
3151 519 1 -1.1128 -18.405548779373117 4.672382866275711 -13.098028795036926 0 0 0
2350 252 1 -1.1128 -18.863983024851084 1.2961514203555868 -11.07121492292033 0 0 0
3153 519 2 0.5564 -18.422176934433967 4.716947469264894 -12.142011393414657 0 0 0
3016 474 1 -1.1128 -18.504914082292135 4.017371629898545 -9.867914623386216 0 0 0
3017 474 2 0.5564 -18.78725603637076 3.103130702329485 -9.893960009922196 0 0 0
2351 252 2 0.5564 -18.192515352307908 1.1709994305165645 -11.741811668019894 0 0 0
711 48 4 0.147 -26.92113515716957 9.774988199009186 -8.427101865278129 0 0 0
709 48 4 0.123 -26.78050725280716 9.935906605279781 -11.076895377506109 0 0 0
708 48 5 -0.08699999999999999 -26.12901779214021 10.48629375505366 -10.359295205503201 0 0 0
710 48 5 -0.271 -26.50327979796928 10.608775889113533 -9.038258856956968 0 0 0
706 48 4 0.134 -24.898528523404053 11.100330830688415 -11.975182589196121 0 0 0
3 1 5 -0.08699999999999999 -17.804508565539077 -2.8337888055995437 -11.993818118715184 0 0 0
720 48 4 0.123 -23.715608383013535 12.966290432519806 -10.70749735288691 0 0 0
707 48 5 -0.184 -25.202670921308005 11.33772315333182 -10.958743821082622 0 0 0
892 60 5 0.296 -19.046449413459626 11.702265116042694 -11.016466820438303 0 0 0
900 60 4 0.123 -18.313850177896796 9.507397276179496 -13.39876927277361 0 0 0
888 60 5 -0.08699999999999999 -21.08347515505169 10.73157320152942 -11.808658595654647 0 0 0
887 60 5 -0.184 -20.365501795616 9.935811709961802 -12.688553945506614 0 0 0
899 60 5 -0.08699999999999999 -18.96372437317928 10.111573543646475 -12.739929780477851 0 0 0
889 60 4 0.123 -22.135666465231356 10.505839702177434 -11.656316289654814 0 0 0
897 60 5 -0.271 -18.313976025042177 10.954400808524943 -11.854905621422953 0 0 0
886 60 4 0.134 -20.806479729873814 9.118124789597832 -13.165313085634224 0 0 0
890 60 5 -0.271 -20.438004190494542 11.61695891515822 -11.010538982665313 0 0 0
719 48 5 -0.08699999999999999 -24.571014137293854 12.367312425780943 -10.228510141005685 0 0 0
891 60 4 0.147 -21.04781870510067 12.45295947120076 -10.587788517482476 0 0 0
894 60 4 0.123 -18.961300058897052 13.05711761155924 -9.319862000207078 0 0 0
893 60 3 -0.439 -18.343524042187 12.619633084902674 -10.10506776945671 0 0 0
2332 246 1 -1.1128 -31.020836887921995 -9.382163255034657 -6.774308782953836 0 0 0
2333 246 2 0.5564 -31.02587302369117 -10.329511296766466 -6.911196117126664 0 0 0
2123 176 2 0.5564 -31.003722398203212 -9.721750198477759 -4.773608250895643 0 0 0
2198 201 2 0.5564 -31.02235389944514 -13.017097342095745 -7.05453266913861 0 0 0
2199 201 2 0.5564 -31.018261836636178 -12.83185474846576 -5.552013640723312 0 0 0
2197 201 1 -1.1128 -30.799166103968027 -12.38608208597671 -6.37025293423698 0 0 0
2288 231 2 0.5564 -27.482599843606383 -12.174879965956153 -4.412588730129983 0 0 0
2289 231 2 0.5564 -28.712561203998632 -12.101555934995805 -5.292198738359123 0 0 0
2115 173 2 0.5564 -30.044980827258918 -12.771623715848573 -3.7227387940363745 0 0 0
2113 173 1 -1.1128 -30.980032646122698 -12.957162751584166 -3.6362218749564135 0 0 0
2114 173 2 0.5564 -31.0583203397541 -13.408907877893448 -2.795966467496279 0 0 0
2122 176 1 -1.1128 -30.99668261235529 -9.891132496284808 -3.831540380366032 0 0 0
2124 176 2 0.5564 -31.02085575189183 -10.845279115444882 -3.7590717417134956 0 0 0
2334 246 2 0.5564 -30.925778215089643 -9.013298175431474 -7.6524512744135835 0 0 0
2030 145 2 0.5564 -30.538048038405762 -11.486160896468874 -0.587146335300145 0 0 0
2287 231 1 -1.1128 -28.16570142057195 -12.718233103979825 -4.805490023652173 0 0 0
2418 274 2 0.5564 -27.57529277356013 -8.412681034788935 -1.3590305302521561 0 0 0
2416 274 1 -1.1128 -27.59085433215473 -9.325910760391942 -1.0726721026382062 0 0 0
2417 274 2 0.5564 -28.518734657762366 -9.560997358598792 -1.0706172936057856 0 0 0
2099 168 2 0.5564 -26.22091766293808 -10.02807569374174 0.049348957813187426 0 0 0
2236 214 1 -1.1128 -29.00511375877324 -13.422713468550393 1.1888295711841383 0 0 0
2238 214 2 0.5564 -29.767274285553402 -13.322771309747298 0.6184308520793798 0 0 0
2237 214 2 0.5564 -29.367711492682847 -13.430701982699693 2.0746573678891465 0 0 0
368 25 3 -0.439 -20.200190438142876 -9.976681273610312 -7.8589060396819725 0 0 0
367 25 5 0.296 -19.28025443444207 -9.173787682449303 -8.768434813287973 0 0 0
371 25 4 0.123 -21.20636626439102 -9.993005162775827 -8.289416798857115 0 0 0
369 25 4 0.123 -19.891755204546673 -11.010418567419878 -7.694391744279006 0 0 0
2385 263 2 0.5564 -27.29741205410273 -13.376683057561674 0.7073405379334174 0 0 0
2126 177 2 0.5564 -25.52869047743775 -13.422381431517055 -2.7035524262472963 0 0 0
2125 177 1 -1.1128 -25.47049969161322 -12.72810225977275 -2.0471820430874215 0 0 0
2457 287 2 0.5564 -26.20453361203511 -11.498811951386704 -2.87334854614573 0 0 0
2455 287 1 -1.1128 -26.582576189278885 -10.771627542599726 -3.3678366371463966 0 0 0
379 26 4 0.123 -20.563627178189957 -11.044225828438876 -2.325553392007014 0 0 0
380 26 5 -0.271 -18.89595829251249 -11.73550481032616 -3.589478876188006 0 0 0
381 26 4 0.147 -18.96292922417672 -12.75058887121111 -3.178077165459355 0 0 0
377 26 5 -0.184 -19.485481039481055 -9.432017448823947 -3.429950396775132 0 0 0
378 26 5 -0.08699999999999999 -19.686016056051937 -10.77609838793659 -2.987072484862787 0 0 0
2047 151 1 -1.1128 -23.46479668173025 -10.138261937079205 -1.4063374846683352 0 0 0
1997 134 2 0.5564 -25.834716616881586 -9.720449403801622 -4.678190634309235 0 0 0
2049 151 2 0.5564 -24.339168049875955 -10.49537006442109 -1.2508372407999266 0 0 0
2456 287 2 0.5564 -26.94100760721377 -10.18759920046215 -2.6995031594244936 0 0 0
1998 134 2 0.5564 -24.403461290908652 -9.35368360037352 -5.008169757488424 0 0 0
2453 286 2 0.5564 -23.26729879172483 -10.722909608342935 -3.249224939457189 0 0 0
2127 177 2 0.5564 -25.880903476118263 -13.10062555997004 -1.2667802432627295 0 0 0
376 26 4 0.134 -20.151855890495906 -8.588955045731693 -3.13686905949885 0 0 0
389 26 5 -0.08699999999999999 -18.488439139593087 -9.13009266877792 -4.361519933412606 0 0 0
2048 151 2 0.5564 -23.19795548584707 -9.77976209746383 -0.5598710305654542 0 0 0
2383 263 1 -1.1128 -26.40267840664692 -13.406191506452354 0.3685001274236788 0 0 0
2100 168 2 0.5564 -26.034194625606876 -11.52298597841707 0.1985901435267745 0 0 0
2098 168 1 -1.1128 -25.692817151734907 -10.683119869718245 0.5057027943981245 0 0 0
3087 497 2 0.5564 -21.42066713036762 -8.78890748318652 0.016830940521972433 0 0 0
3086 497 2 0.5564 -21.91895895459062 -8.378943771848483 -1.3526690339821843 0 0 0
2452 286 1 -1.1128 -23.069824714592823 -10.426928669360441 -4.137836841439576 0 0 0
2412 272 2 0.5564 -22.70688999541761 -13.24694469852866 0.3239081933260494 0 0 0
1996 134 1 -1.1128 -25.309642385275133 -9.10148033226857 -5.185542782288405 0 0 0
2202 202 2 0.5564 -30.73833043815066 -9.334304186383154 -1.8572625337084656 0 0 0
2200 202 1 -1.1128 -30.402343255094998 -9.30971126946192 -0.9613051604408357 0 0 0
414 28 4 0.123 -28.110036381044864 -6.415364470794304 -4.244950189472272 0 0 0
416 28 4 0.123 -28.295113233804077 -7.286045475201157 -5.7275919851202115 0 0 0
413 28 3 -0.439 -28.85147597676951 -6.528801511702974 -5.093191400692838 0 0 0
2201 202 2 0.5564 -30.948143175317483 -8.660193969193939 -0.5180653141896405 0 0 0
415 28 4 0.123 -29.768621082554617 -6.891267601428603 -4.688465567375524 0 0 0
418 28 4 0.147 -29.612316505121004 -4.2261900452368035 -3.9552502963915916 0 0 0
420 28 4 0.123 -30.332668678279 -2.225591347035666 -5.084711898414544 0 0 0
406 28 4 0.134 -30.495926068530377 -2.0410646773776184 -7.6094824117679565 0 0 0
408 28 5 -0.08699999999999999 -29.547181053829316 -4.004947325082934 -7.832278113529231 0 0 0
407 28 5 -0.184 -30.0061357477884 -2.864837501925465 -7.10993089233267 0 0 0
419 28 5 -0.08699999999999999 -29.966475096700606 -3.0151800389204246 -5.725325475422828 0 0 0
417 28 5 -0.271 -29.48937448141895 -4.160821496972839 -5.049421546802952 0 0 0
410 28 5 -0.271 -29.117591838378033 -5.212462439944137 -7.184680966913518 0 0 0
412 28 5 0.296 -29.161635985181444 -5.247937498528527 -5.854396613936176 0 0 0
2330 245 2 0.5564 -26.89938291553673 -3.846743867941936 -4.79438606452932 0 0 0
253 17 4 0.147 -27.22866968222488 0.8275265177392197 -4.988137782102022 0 0 0
306 21 4 0.147 -26.570385696745934 -3.8962673328939896 -1.8006725148182083 0 0 0
2064 156 2 0.5564 -25.425003645885845 -6.792308305633222 -2.594229362908966 0 0 0
2063 156 2 0.5564 -25.715926316036217 -7.804928002635591 -3.681363430272703 0 0 0
2062 156 1 -1.1128 -26.09869155922987 -7.3974262267303335 -2.9044046898385765 0 0 0
304 21 4 0.123 -26.779765688313066 -1.8833424626527384 -2.983489323940741 0 0 0
302 21 5 -0.184 -28.82364608104494 -1.4047201580789703 -2.170199571917851 0 0 0
303 21 5 -0.08699999999999999 -27.60727862446874 -2.138680288590592 -2.2743678989207936 0 0 0
305 21 5 -0.271 -27.510059228933162 -3.4060324467031386 -1.7773251342670715 0 0 0
301 21 4 0.134 -28.99400104439374 -0.513817731206164 -2.6850600068154304 0 0 0
255 17 4 0.123 -26.802769131312505 2.1609174952864745 -2.815538969286662 0 0 0
314 21 5 -0.08699999999999999 -29.906446919371096 -1.7758732328789995 -1.3840028844054362 0 0 0
307 21 5 0.296 -28.59320348357071 -3.8182747990674315 -1.0062349726270037 0 0 0
312 21 5 -0.271 -29.717625286823477 -2.979566488372005 -0.7382907976778456 0 0 0
81 6 4 0.147 -25.86555707112219 -7.460090302357611 -0.1686215571015083 0 0 0
315 21 4 0.123 -30.706634752457667 -1.0442275475121714 -1.1668905264982727 0 0 0
370 25 4 0.123 -20.225685851772443 -9.442707861208657 -6.890717726180433 0 0 0
2033 146 2 0.5564 -25.77611112359098 -3.179014463880669 -8.227218195438892 0 0 0
2501 302 2 0.5564 -21.81984724415708 -6.280462234982489 -8.644378045538645 0 0 0
2318 241 2 0.5564 -21.884219506693785 -7.4800176308322115 -3.9265785915707077 0 0 0
365 25 5 -0.271 -18.145986929733443 -8.5493207545343 -8.335044336522317 0 0 0
2319 241 2 0.5564 -22.931959501409356 -8.528608891938928 -3.619019799333581 0 0 0
329 22 5 -0.08699999999999999 -23.02988410687531 12.167549590315117 9.14341697399833 0 0 0
2317 241 1 -1.1128 -22.772723200621545 -7.58530989421951 -3.5864219226439484 0 0 0
61 5 4 0.134 -18.59309669138132 -8.690555042667935 0.17921324444658587 0 0 0
2022 142 2 0.5564 -25.245682891099936 -2.163188638508004 -4.836382789906319 0 0 0
2329 245 1 -1.1128 -26.004361719707735 -4.042487804511481 -4.517161952300079 0 0 0
2331 245 2 0.5564 -25.583176242639937 -4.3983388918130215 -5.299597021807456 0 0 0
2450 285 2 0.5564 -25.016010102762973 -4.848117239898402 -3.2815798665000018 0 0 0
2449 285 1 -1.1128 -24.501604721171372 -5.228498327172033 -2.569590276245811 0 0 0
79 6 4 0.123 -23.77015783509275 -6.358222786932229 -0.5110331794057303 0 0 0
3085 497 1 -1.1128 -21.136963678089625 -8.379696356519615 -0.8006593882291787 0 0 0
2393 266 2 0.5564 -18.869322464105462 -3.791555187322807 -2.0457655221331996 0 0 0
2475 293 2 0.5564 -18.24637376275025 -5.317419980360277 -3.8704674538798143 0 0 0
19 2 4 0.123 -24.97118933649955 -2.01532771528589 -1.405213006834441 0 0 0
2021 142 2 0.5564 -25.456582031884032 -2.006343943062593 -6.3272940741352635 0 0 0
2337 247 2 0.5564 -25.118783407844933 -5.629305248000846 -8.106105522055145 0 0 0
2406 270 2 0.5564 -23.371160371559114 -2.538394968278151 -5.720844311145614 0 0 0
2020 142 1 -1.1128 -24.922524220902254 -1.6857612133639812 -5.6004923131390525 0 0 0
2404 270 1 -1.1128 -22.509158885712544 -2.7081143781464028 -6.100818825198662 0 0 0
441 30 4 0.147 -19.23631889888184 -3.0116009316541144 -7.540942630669873 0 0 0
443 30 3 -0.439 -18.15369540965267 -1.354797651151129 -5.683401222133393 0 0 0
2045 150 2 0.5564 -25.080390746092217 -7.141771857734457 -6.1621679502701925 0 0 0
2046 150 2 0.5564 -24.218845821368784 -5.911293522598168 -6.350737164552203 0 0 0
2044 150 1 -1.1128 -25.112857559486546 -6.233998012409818 -6.46403590876213 0 0 0
2454 286 2 0.5564 -22.121242986624402 -10.526378555299653 -4.218671594075244 0 0 0
2101 169 1 -1.1128 -20.786664685995586 -6.114409767955976 -4.913784822712402 0 0 0
2103 169 2 0.5564 -19.901409909672672 -6.074095353559275 -5.275628142475667 0 0 0
2102 169 2 0.5564 -20.780128626163044 -5.484828818217122 -4.192801496070806 0 0 0
2257 221 1 -1.1128 -22.53448858244746 -5.474994898819296 -6.986738969066499 0 0 0
2259 221 2 0.5564 -22.01564422862517 -5.489836989086139 -6.182492677683066 0 0 0
2258 221 2 0.5564 -22.61236964015479 -4.546267182352681 -7.204984722765405 0 0 0
2405 270 2 0.5564 -22.15191087933357 -1.8389952087592025 -6.283130563169383 0 0 0
20 2 5 -0.271 -23.302139122155697 -1.327733911781481 -2.4190565654109153 0 0 0
442 30 5 0.296 -17.604878168437548 -2.5735138967618894 -6.310905853283663 0 0 0
18 2 5 -0.08699999999999999 -24.151541942504775 -1.3973860076078104 -1.3824900328575784 0 0 0
446 30 4 0.123 -19.0671530733771 -1.624847564967832 -5.057453175810539 0 0 0
2024 143 2 0.5564 -20.330851077643487 -2.8173637737486494 -3.662031218986658 0 0 0
2023 143 1 -1.1128 -21.137147789649713 -3.3271327075934884 -3.582954958236207 0 0 0
2025 143 2 0.5564 -21.61493769197154 -3.147658070492871 -4.3927311600171075 0 0 0
2196 200 2 0.5564 -21.93417152279813 -3.9239914132333724 -2.059480725605087 0 0 0
440 30 5 -0.271 -18.292235204014744 -3.3703006310631176 -7.137610888796239 0 0 0
2506 304 1 -1.1128 -19.379503586393962 -2.281707241386011 -1.0021921832334462 0 0 0
2195 200 2 0.5564 -23.10090097967965 -4.655260420449758 -1.4302882308909748 0 0 0
2194 200 1 -1.1128 -22.235702658314032 -4.297394582261829 -1.2313014689698147 0 0 0
2451 285 2 0.5564 -23.78246481681676 -5.682359725412003 -3.008998358972142 0 0 0
2508 304 2 0.5564 -19.886974326742028 -2.345769146291512 -0.1931177997518913 0 0 0
3127 511 1 -1.1128 -20.161584926831814 -5.7492880205795185 -0.2910071510710509 0 0 0
3129 511 2 0.5564 -20.840290452575513 -5.10213528469361 -0.482798678137089 0 0 0
3128 511 2 0.5564 -20.57158715914085 -6.591995763604639 -0.4858755403703734 0 0 0
2507 304 2 0.5564 -19.487562504109345 -1.3726921835510855 -1.2819183081339116 0 0 0
2473 293 1 -1.1128 -18.141542221741272 -5.536234288138271 -4.796406140512323 0 0 0
2394 266 2 0.5564 -19.04632111118528 -5.184439191979657 -1.479690655007448 0 0 0
21 2 4 0.147 -23.22654755041356 -2.1430158480270016 -3.1464204189078604 0 0 0
25 2 4 0.123 -20.81392801808618 -0.22691132368974262 -3.810743265715165 0 0 0
2392 266 1 -1.1128 -18.66542052146736 -4.710596010871376 -2.2190276957907007 0 0 0
2241 215 2 0.5564 -18.028283322979377 -4.467069233711977 2.0479656259987733 0 0 0
2619 341 2 0.5564 -22.206075923376257 -1.3158451942428786 0.030202358781395294 0 0 0
2617 341 1 -1.1128 -21.564351963996092 -1.938558639450043 0.37174322598720067 0 0 0
445 30 4 0.123 -18.42784899102092 -0.5849903866297694 -6.418730783272599 0 0 0
26 2 4 0.123 -22.141282731338748 -0.717671239871767 -4.826445129177677 0 0 0
62 5 5 -0.184 -17.60260829866535 -9.027008952182204 -0.043767191628998295 0 0 0
390 26 4 0.123 -18.255139910032465 -8.079994061196349 -4.598031143039867 0 0 0
2582 329 2 0.5564 -17.613928535178655 9.854996325729202 0.4008923092163197 0 0 0
317 22 5 -0.184 -22.735376189964498 10.982078079313306 9.841661707651715 0 0 0
180 12 4 0.123 -28.45440767360103 4.205025450619418 -9.036163739251677 0 0 0
294 20 4 0.123 -29.34381862293113 10.439838483311494 -5.490998928897044 0 0 0
252 17 5 -0.271 -27.766544004418343 1.8096464634330554 -4.739056110034584 0 0 0
254 17 5 -0.08699999999999999 -27.398913591263913 2.615651486526712 -3.622060609627044 0 0 0
249 17 4 0.123 -28.413531204977467 0.5402663689215196 -6.926562918827679 0 0 0
247 17 5 0.296 -28.55100920212249 2.3258987087243104 -5.7462929887597065 0 0 0
241 17 4 0.134 -27.463533235756096 4.497406738881991 -2.7047543899866864 0 0 0
242 17 5 -0.184 -27.864480649279745 3.8946961215679576 -3.5909551595223013 0 0 0
166 12 4 0.134 -30.38352544955723 5.695822516970123 -8.31216216038711 0 0 0
250 17 4 0.123 -30.053674351305215 0.9081092781391916 -6.401608101249075 0 0 0
243 17 5 -0.08699999999999999 -28.74000181741366 4.3285983607095035 -4.588669597732137 0 0 0
244 17 4 0.123 -28.869173890848305 5.4406957279104144 -4.6621174852003 0 0 0
251 17 4 0.123 -29.162811064136 1.8756216552731073 -7.650081001618676 0 0 0
248 17 3 -0.439 -29.10866524655866 1.3251233982057966 -6.730625453713317 0 0 0
246 17 4 0.147 -29.76495665011393 3.8523482273626746 -6.472229559796659 0 0 0
245 17 5 -0.271 -29.098638769240985 3.564932965933027 -5.661623628956719 0 0 0
430 29 4 0.123 -28.612588920520523 7.333092473708544 -1.5124409262854328 0 0 0
426 29 4 0.147 -27.846827313805566 8.693024192140431 0.12298383311013697 0 0 0
429 29 4 0.123 -29.720120188904595 6.02400733596854 -1.2176095528145376 0 0 0