LAMMPS data file via write_data, version 2 Aug 2023, timestep = 10000, units = real

3132 atoms
8 atom types
2109 bonds
6 bond types
1140 angles
9 angle types
135 dihedrals
3 dihedral types

-11.9922009893682 60.507363394122706 xlo xhi
-12.128790601188626 12.128790601188626 ylo yhi
-12.128790601188626 12.128790601188626 zlo zhi

Masses

1 15.9994
2 1.008
3 12.011
4 15.9994
5 1.008
6 15.9994
7 15.9994
8 1.008

Pair Coeffs # lj/cut/coul/long

1 0.119432 3.40025
2 0 0
3 0.252656 2.84916
4 0.0663016 3.58118
5 0.0282937 2.37341
6 0 0
7 0 0
8 0.119497 3.1

Bond Coeffs # harmonic

1 442.161 0.972
2 1109.29 1.12
3 399.792 1.43
4 400.034 1.53
5 179.254 0.971
6 155.354 1.42

Angle Coeffs # harmonic

1 47.5559 103
2 30.1731 109.5
3 47.694 109.5
4 55.1139 111
5 65.472 111.3
6 54.9931 110.3
7 55.0234 111.4
8 180.46 109
9 30.1731 110

Dihedral Coeffs # harmonic

1 0.301147 1 3
2 1.41491 1 3
3 0 1 1

Atoms # full

689 230 2 0.413 -7.814964331967881 -8.943205193339038 -6.323351938929145 0 0 0
690 230 2 0.413 -8.525312203736005 -8.226321129680782 -5.194017467217313 0 0 0
688 230 1 -0.826 -8.65300032250536 -9.063130183832262 -5.7738180161409165 0 0 0
928 310 1 -0.826 -8.674414045930959 -6.879077894221148 -9.318873835142579 0 1 0
930 310 2 0.413 -9.360296270000717 -7.267766331406952 -8.823552947886084 0 1 0
951 317 2 0.413 -7.792980755870441 -7.119358134476752 -3.7797810718808655 0 1 1
949 317 1 -0.826 -8.20078875574428 -6.475465977112626 -4.393645623306575 0 1 1
950 317 2 0.413 -7.614525216088339 -5.696344212408301 -4.196115072682168 0 1 1
929 310 2 0.413 -8.819405046048441 -5.918423426139232 -9.18482736919036 0 1 0
61 21 1 -0.826 -8.389707005886562 -4.192601781822321 11.723122841412994 0 1 -1
893 298 2 0.413 -5.19846703005932 -8.128192760128217 -8.992133606436475 0 -1 1
71 24 2 0.413 -8.97321682819242 -10.925624404068081 -10.424436527601678 0 0 1
70 24 1 -0.826 -9.722771785284067 -11.129184614601604 -11.045553262198473 0 0 1
2865 955 2 0.413 -11.112765653244544 -2.9020771883654994 -2.6240572384082537 1 1 -2
2863 955 1 -0.826 -11.826815023176183 -2.957625801200402 -1.9322828223696558 1 1 -2
2396 799 2 0.413 -4.081620942444705 -9.674922777564289 -5.119733321755774 1 1 0
3107 1036 2 0.413 -9.338721434642213 -5.962101925479554 -6.338676179361164 1 0 0
880 294 1 -0.826 -11.368966614089125 -3.6929556607613474 -11.537043758502152 0 1 2
1656 552 2 0.413 -8.101059885008503 -4.18257156940685 -10.395488972893347 0 1 1
62 21 2 0.413 -8.19155032011784 -5.080484194922764 11.333487919762149 0 1 -1
1654 552 1 -0.826 -8.016773509888129 -3.96798670415596 -9.39144500865234 0 1 1
892 298 1 -0.826 -5.326560598820357 -8.595959313621957 -9.851268627727082 0 -1 1
147 49 2 0.413 59.3293572734527 -5.592710823514503 -9.195246732990862 -1 -1 1
145 49 1 -0.826 59.38101893063853 -4.628577113757586 -9.24207197491209 -1 -1 1
146 49 2 0.413 60.18730109145659 -4.439550394956184 -9.694203331971412 -1 -1 1
2853 951 2 0.413 60.17070896672311 -2.4552237523041445 -7.2263753677767175 0 -1 1
3073 1025 1 -0.826 57.30118626595615 -5.327110472137764 -6.936520918937838 0 0 0
3075 1025 2 0.413 58.19806777540643 -5.686089303551223 -7.2063877938731 0 0 0
213 71 2 0.413 -11.057230242630173 -9.01327557846711 -8.354651842554544 0 1 -2
897 299 2 0.413 -7.97813718704797 -10.952445820430249 -6.188944931786055 0 0 0
72 24 2 0.413 -10.462674731298108 -10.773528415169558 -10.518601040969246 0 0 1
3017 1006 2 0.413 -6.460620252133592 11.9633430528901 -9.422756621278275 1 -1 1
211 71 1 -0.826 -10.777978254107552 -8.408610792695733 -7.588168820689516 0 1 -2
212 71 2 0.413 -10.19076902931483 -8.962228592219237 -6.9919791164785305 0 1 -2
2779 927 1 -0.826 60.33431073723817 -9.845064466609738 -9.679687272961797 0 0 1
2717 906 2 0.413 -4.562787771801862 -3.484915810493389 -6.144246032429825 1 -1 0
881 294 2 0.413 -11.84395107681436 -3.2649181814859585 11.98293490369284 0 1 1
2720 907 2 0.413 -7.050698424765097 -8.521916083220141 -10.989409129855787 1 1 1
912 304 2 0.413 -5.740869255845548 11.634391086526499 10.192330088487989 0 0 -1
910 304 1 -0.826 -4.79993868677397 11.27510261351765 10.35989083572203 0 0 -1
911 304 2 0.413 -4.877500897444351 10.997691913648318 11.303509624812417 0 0 -1
666 222 2 0.413 -1.8061046062227035 -9.077637925090686 -4.710378416899428 0 0 0
664 222 1 -0.826 -0.9780488856773495 -9.598457896816225 -4.75253183625583 0 0 0
665 222 2 0.413 -1.0336288239430207 -10.167933395521011 -5.577237410480203 0 0 0
769 257 1 -0.826 -1.6080876551467558 -10.09754631225796 -8.478264795495901 0 1 0
770 257 2 0.413 -0.9845591215197658 -10.499342883895242 -9.219600230214278 0 1 0
2460 820 2 0.413 -0.8295149864681512 -11.427257505682784 -11.681933883089108 1 2 1
2459 820 2 0.413 0.46589273802790565 -11.53305038561586 -10.964122494279342 1 2 1
2458 820 1 -0.826 -0.4822993906640054 -11.56186726029535 -10.76897749843063 1 2 1
803 268 2 0.413 -5.639561642920955 -8.015281749002238 -6.056976385693314 0 1 1
804 268 2 0.413 -6.222997287350664 -7.543984922912782 -7.443023513520761 0 1 1
802 268 1 -0.826 -6.0606049012031535 -8.379198135482307 -6.870565653602623 0 1 1
771 257 2 0.413 -1.1130670088663042 -9.307290433668074 -8.36141478427684 0 1 0
639 213 2 0.413 0.489757435085739 -4.642428529463102 -12.037904492111103 0 0 0
637 213 1 -0.826 0.5689342809401108 -4.5288355435131 -11.076081250282794 0 0 0
1406 469 2 0.413 2.6305384089281603 -11.81628103143565 -11.541822396569216 0 -1 0
638 213 2 0.413 -0.37370777485674544 -4.56193482953845 -10.902247317719466 0 0 0
439 147 1 -0.826 -2.6432464997692975 -7.307642401242369 -10.866819614912668 0 0 1
440 147 2 0.413 -2.9249190950365236 -7.177941088524249 -9.92179959396128 0 0 1
2395 799 1 -0.826 -3.7795318670260176 -9.04308845765913 -4.38738387974728 1 1 0
894 298 2 0.413 -4.920889181865575 -9.406152734217214 -9.498969764758044 0 -1 1
495 165 2 0.413 3.6735566118547975 10.707566018287775 -10.491304805477176 0 0 0
955 319 1 -0.826 -1.4006928789524764 -6.91298446862373 -6.272064381795561 0 0 1
957 319 2 0.413 -1.3287132859940503 -7.2910061978452845 -5.385431598639555 0 0 1
956 319 2 0.413 -0.6318910978088876 -7.389238004157656 -6.70692917596123 0 0 1
431 144 2 0.413 -3.510804763735342 -5.1167956482736185 -8.16744740980761 0 1 0
432 144 2 0.413 -2.7681377568486987 -6.315999829640158 -7.607991262474136 0 1 0
1899 633 2 0.413 -0.6220989735495142 -5.0005309085037055 -6.499504316370834 0 0 1
577 193 1 -0.826 0.6196772253589433 -8.214746153076566 -8.174789776461058 0 -1 1
578 193 2 0.413 0.7705319153284123 -7.700445909646076 -9.015341019783262 0 -1 1
1426 476 1 -0.826 -0.2929994461573493 -4.752666124435945 10.256385755045287 0 0 -1
430 144 1 -0.826 -3.4447676087521177 -6.079634800055396 -8.297530515139787 0 1 0
2261 754 2 0.413 -3.2180587279618855 -11.197672772808023 -8.78384534257599 1 1 -1
2260 754 1 -0.826 -3.97870584875548 -11.720549149856407 -9.244358715265877 1 1 -1
2772 924 2 0.413 0.17523448855021684 10.719964563960641 -5.387599328040015 1 0 0
1427 476 2 0.413 -0.7477806059613386 -5.578236834486993 10.47286460087878 0 0 -1
225 75 2 0.413 2.771732397408792 -8.79424416558094 -10.36731757933112 0 1 0
223 75 1 -0.826 3.025420106708845 -7.9134088141650105 -10.075765240640633 0 1 0
224 75 2 0.413 3.970296953056316 -7.833716412967334 -10.404061599715392 0 1 0
579 193 2 0.413 1.5583773994222305 -8.410268082801974 -7.918205494492502 0 -1 1
295 99 1 -0.826 2.997052899395383 -9.45292285510259 -6.958131508906035 0 1 0
296 99 2 0.413 3.9156544892449467 -9.661100864261922 -6.936908068157285 0 1 0
297 99 2 0.413 2.7097735320507077 -9.629845576260191 -5.966859565958233 0 1 0
1674 558 2 0.413 5.242811345245933 -3.963827849400033 10.599993181671689 0 -1 -1
905 302 2 0.413 8.618906265473012 -10.796989191396506 -7.228508269071028 0 1 0
904 302 1 -0.826 7.6713543504893345 -10.722912740523903 -7.5324196434776365 0 1 0
906 302 2 0.413 7.145970329261864 -10.322842044468684 -6.807028528226621 0 1 0
222 74 2 0.413 5.4993077910673165 -6.119991240522073 -9.136641247262949 0 0 0
220 74 1 -0.826 5.962835498059185 -6.126718031578958 -9.973745263875747 0 0 0
902 301 2 0.413 9.16014945092649 -3.9096989693609725 10.451246575518887 0 2 0
903 301 2 0.413 9.066457250553185 -5.177887718138338 11.006838014821742 0 2 0
3009 1003 2 0.413 7.8051466501104905 -1.4638706696639368 -8.74878256818886 0 0 1
221 74 2 0.413 6.0961153718337115 -7.094654174866869 -10.148988673972012 0 0 0
2925 975 2 0.413 6.569100804492553 -10.47989611721929 -5.004331085535498 1 1 -1
2923 975 1 -0.826 5.616185202644193 -10.328319464603691 -5.440110054212792 1 1 -1
1672 558 1 -0.826 4.594407707862533 -4.0450076351476305 11.34522744172331 0 -1 -1
3007 1003 1 -0.826 7.401552985376849 -1.729530356097813 -9.670373541415312 0 0 1
3008 1003 2 0.413 7.277199114807271 -2.7303556368397874 -9.5382273456892 0 0 1
1978 660 1 -0.826 8.535693284189744 -7.5174290670689095 -5.523987705833222 0 1 0
1243 415 1 -0.826 11.277758449977526 -6.68861042445361 -10.874853672008012 0 1 0
1245 415 2 0.413 10.32683936719572 -6.580601480698442 -11.067009173304449 0 1 0
1979 660 2 0.413 7.994879262730546 -7.576535788786273 -6.340322116727659 0 1 0
1673 558 2 0.413 5.1903873942755006 -4.475945813780741 11.999402285643217 0 -1 -1
966 322 2 0.413 6.292476518727526 -9.417536240210447 -9.428032805336564 0 1 0
861 287 2 0.413 5.9952701361062175 -4.904060953766553 -3.1955733100959893 0 0 -1
859 287 1 -0.826 5.8102016930319245 -3.948522317488779 -3.0305702412921978 0 0 -1
860 287 2 0.413 5.746495246662686 -3.634620667318936 -3.956628876298957 0 0 -1
2924 975 2 0.413 5.054041207779914 -10.940101144346231 -4.911390822372487 1 1 -1
110 37 2 0.413 8.245833150941944 -5.15242510490751 -5.9712557520198954 0 0 1
965 322 2 0.413 5.990497223301304 -9.551189704179658 -10.886935475778603 0 1 0
747 249 2 0.413 7.791618902003833 -7.0063000591060565 11.978144976756653 0 0 0
964 322 1 -0.826 6.10076419157604 -8.82182051068696 -10.1784638359158 0 1 0
1980 660 2 0.413 9.2327353966215 -8.197016294976203 -5.726497871243247 0 1 0
1244 415 2 0.413 11.4784921385526 -7.398566395362615 -11.599021745284878 0 1 0
777 259 2 0.413 11.233593846058486 -9.670471693671587 -5.606255182039614 0 0 0
775 259 1 -0.826 10.325729376595344 -9.866906958201794 -5.835290861720017 0 0 0
776 259 2 0.413 10.403593519825595 -10.815303954895581 -6.160454179772881 0 0 0
2006 669 2 0.413 14.240766473136308 -6.905579358489521 -10.94164502620226 0 0 1
2005 669 1 -0.826 14.22582936921333 -6.010787831397435 -11.345863209377416 0 0 1
2007 669 2 0.413 13.267791559640372 -5.962653572124128 -11.53294339928464 0 0 1
1692 564 2 0.413 13.896680490397777 -10.577188824514836 -4.3333344786429935 0 0 2
2077 693 1 -0.826 17.08044328240181 -7.986221579534231 -7.910027986030583 0 0 0
2079 693 2 0.413 17.847321927209123 -7.367184269847701 -7.726664957797412 0 0 0
2078 693 2 0.413 17.46612673008338 -8.608678576065682 -7.22408415558888 0 0 0
1331 444 2 0.413 11.866448453118121 -8.285621363057231 -7.575183957552644 0 0 1
1332 444 2 0.413 11.911052986925657 -6.978930995071924 -8.270224085423397 0 0 1
1330 444 1 -0.826 12.300893443334818 -7.367450906568247 -7.492332930980567 0 0 1
1690 564 1 -0.826 13.470656467959692 -10.903249264261456 -5.118367643867273 0 0 2
1691 564 2 0.413 13.327804609875198 -11.820353797491379 -4.757911968440785 0 0 2
1208 403 2 0.413 11.62583027341456 -3.441669494893631 -9.801425369557794 0 0 0
1207 403 1 -0.826 11.63714858877987 -3.5193602191042412 -10.756917667192349 0 0 0
1209 403 2 0.413 11.81452347834136 -4.490444485529439 -10.705872940728918 0 0 0
1264 422 1 -0.826 15.064487568867602 -6.240851186130059 -6.8762554131124185 0 1 0
1265 422 2 0.413 15.729182075454986 -6.8121056877707895 -7.295020751636553 0 1 0
1266 422 2 0.413 14.286043700002061 -6.807814323756332 -6.971320895246982 0 1 0
1298 433 2 0.413 16.156689824352224 -10.123341284182565 10.44723082393666 0 1 0
1491 497 2 0.413 17.796200325605973 10.426368989582997 -9.703217217396764 0 -1 1
2544 848 2 0.413 14.732105716834173 -9.143507932718443 -9.354463118892618 0 1 1
2253 751 2 0.413 17.850965970159766 -4.796786223347542 -9.966914771482095 1 0 0
2251 751 1 -0.826 17.015831232257938 -4.949138738199439 -9.516686801200972 1 0 0
2252 751 2 0.413 16.675460310589354 -5.793555529653578 -10.024662744456279 1 0 0
1299 433 2 0.413 17.070308584444746 -11.205118373030173 10.785987793158682 0 1 0
2543 848 2 0.413 16.019795911793327 -8.39104427076457 -9.669176742100042 0 1 1
2542 848 1 -0.826 15.166617849046514 -8.534730569714071 -10.053628237618247 0 1 1
733 245 1 -0.826 19.514657356217338 -7.205981968281433 -6.34984266777075 0 0 0
735 245 2 0.413 19.44455359726076 -8.087766315975225 -5.895590133691298 0 0 0
1999 667 1 -0.826 18.052479834947793 -9.770192505915539 -5.564222873586928 0 1 1
1379 460 2 0.413 17.91994209577905 -11.418649922804208 -10.152926720158796 0 1 1
1378 460 1 -0.826 18.12383064996339 -10.494390589223293 -10.503494260867678 0 1 1
1820 607 2 0.413 18.804157765982637 11.542525917315782 -7.489872279343875 0 0 0
1821 607 2 0.413 19.860553613026006 -11.706464487133603 -7.324697128930666 0 1 0
1819 607 1 -0.826 19.749478851825828 11.622289776197949 -7.2038014069795215 0 0 0
1489 497 1 -0.826 17.470487440078333 11.169045183395166 -9.159158021218554 0 -1 1
1490 497 2 0.413 16.522451414886604 10.980718668176223 -9.25231133341959 0 -1 1
1630 544 1 -0.826 20.805803676840576 -9.734332573422813 -8.127926228383624 0 1 1
1632 544 2 0.413 21.55680318275217 -10.209667147285701 -8.54246205337883 0 1 1
1235 412 2 0.413 20.262699459740368 -5.929606378638166 10.834971272428518 0 -1 0
1234 412 1 -0.826 20.95725226485066 -5.795803210200123 11.482024243447992 0 -1 0
1236 412 2 0.413 21.042395215378143 -6.708903324508425 11.832237253428751 0 -1 0
2521 841 1 -0.826 24.776393345739756 -3.846426853308021 -7.3996362626473156 0 0 0
3211 1051 5 0.08699999999999999 23.856254484395507 -10.363150616172684 -5.92784757218165 0 0 0
1037 346 2 0.413 22.0700633277972 -12.0163133532792 -10.453607663229226 0 1 1
1036 346 1 -0.826 22.56568159000509 -11.362275202681342 -10.945406632897594 0 1 1
3207 1051 5 0.089 22.42154568216383 -7.213773345046507 -5.891082731532223 0 0 0
1325 442 2 0.413 26.681048483366006 -5.446007343370371 -10.257223696754403 0 1 1
1380 460 2 0.413 17.60899493167704 -9.948018119324617 -9.900722099883328 0 1 1
3203 1051 5 0.08799999999999999 24.486778848579767 -6.198064287407074 -4.900955393552699 0 0 0
1326 442 2 0.413 25.645454282480188 -6.088800554608324 -9.263259034768886 0 1 1
1324 442 1 -0.826 26.442758854217885 -5.51220589922059 -9.341211819865935 0 1 1
1956 652 2 0.413 24.396630234791992 -10.23304284084267 -9.900777438202441 0 1 0
1165 389 1 -0.826 21.961336329672754 -6.445521363859773 -9.526871658634764 0 0 0
1038 346 2 0.413 22.007811395835105 -11.307879176638313 -11.806625556815037 0 1 1
1631 544 2 0.413 20.326073549382187 -9.449919329116398 -8.913268453162948 0 1 1
1167 389 2 0.413 22.70900510701425 -6.827082006976479 -9.078125600010758 0 0 0
2522 841 2 0.413 25.279135129122935 -4.355102835102704 -8.000286136639744 0 0 0
1902 634 2 0.413 21.587877026432253 -3.9756466340928576 -6.3890304666456545 0 0 -1
3129 1043 2 0.413 24.255070235927697 11.925253180113664 10.579510227134588 0 -1 -1
734 245 2 0.413 20.407584747601106 -7.1908010836403795 -6.751685150800473 0 0 0
2001 667 2 0.413 17.481064965103442 -10.574086304633159 -5.402729557814127 0 1 1
2000 667 2 0.413 18.54523723571378 -9.743522661042949 -4.78394536079378 0 1 1
3209 1051 4 -0.043 22.983538930473138 -9.814454828375345 -5.363531610118534 0 0 0
3205 1051 4 -0.04 22.771898059504203 -7.498346865807563 -4.852416940838064 0 0 0
3202 1051 4 -0.04 23.57384864170068 -6.304778430094547 -4.262208323964664 0 0 0
3201 1051 3 -0.275 22.87012122394018 -5.062223149897031 -4.174793475755562 0 0 0
1113 371 2 0.413 19.231814607320338 -9.255211672486817 -11.870959272180603 0 1 0
1505 502 2 0.413 20.367954079356068 -4.62746799252023 -11.26616191506383 0 0 -1
1954 652 1 -0.826 24.50023662646103 -10.360444131103604 -8.883792601621698 0 1 0
397 133 1 -0.826 25.572896239094113 -9.957911986292373 11.852499702708343 0 1 0
398 133 2 0.413 25.2245626682083 -10.853984937890818 11.970518626477386 0 1 0
399 133 2 0.413 25.946077588394232 -10.178439859240294 10.952062538494488 0 1 0
827 276 2 0.413 27.80900309541849 -8.086316087717737 -11.542752071153252 0 1 0
826 276 1 -0.826 27.499673961949306 -8.645848848116833 -10.7009630134924 0 1 0
828 276 2 0.413 26.891979413303844 -9.304226911221262 -11.125442880122854 0 1 0
3028 1010 1 -0.826 27.653159414149947 -5.573891073875833 12.080879748260934 0 1 -1
3030 1010 2 0.413 27.00201141878187 -4.906123791361198 11.745993260452465 0 1 -1
3029 1010 2 0.413 27.563158736619037 -6.126525782552323 11.28249390158534 0 1 -1
2247 749 2 0.413 28.25749667043786 -9.09764516317491 -5.906052688777629 0 -1 1
1911 637 2 0.413 26.82418758874372 -7.641120233517609 -7.598579578154384 0 0 -1
2230 744 1 -0.826 25.997351487651002 -1.6980845860325555 -9.320544663104119 0 1 1
2231 744 2 0.413 25.732377859462083 -0.8203103103265565 -9.829798572097623 0 1 1
189 63 2 0.413 29.409536820267917 -4.453007859648244 -10.203860096982908 0 0 0
2246 749 2 0.413 29.042291850995802 -8.328132503746833 -4.922118430589956 0 -1 1
187 63 1 -0.826 30.341811711479686 -4.273147252008035 -10.272930421862482 0 0 0
1955 652 2 0.413 25.171988730122436 -11.07312220832384 -8.87129643148734 0 1 0
1527 509 2 0.413 24.80796627362014 -8.632277738692396 -8.145934785616742 0 1 1
1910 637 2 0.413 27.85719432953065 -8.231693620872663 -8.566768054210655 0 0 -1
1909 637 1 -0.826 27.754514800370174 -7.891548535087452 -7.657891823686288 0 0 -1
1525 509 1 -0.826 25.006058499932493 -7.844531230919271 -7.584932950065266 0 1 1
1526 509 2 0.413 24.629948961034444 -8.11165291509556 -6.769938507627022 0 1 1
1953 651 2 0.413 35.52999018986244 -5.349328792061308 11.563676984466525 0 2 0
188 63 2 0.413 30.525534333786354 -4.762792072501596 -9.436010589371898 0 0 0
1942 648 1 -0.826 31.57816743872452 -9.692379531999356 -6.5645845780623455 0 -1 1
1944 648 2 0.413 32.52750738669814 -9.863567586148243 -6.586745297724887 0 -1 1
1943 648 2 0.413 31.523597748602263 -8.929747608204886 -5.971155608109211 0 -1 1
1951 651 1 -0.826 35.124343313289685 -5.5670146529032305 -11.856523092947866 0 2 1
9 3 2 0.413 28.64289342287016 -5.333252235807405 -7.925819703493198 0 0 -1
54 18 2 0.413 29.937449297866856 -10.367789549264161 -7.5592653939020025 0 -1 0
2582 861 2 0.413 32.19486603411325 -10.689710441023548 -11.135930422340008 0 0 1
2245 749 1 -0.826 28.359708243857952 -9.057184873401402 -4.934419178397488 0 -1 1
1971 657 2 0.413 32.0779716152042 -5.8836775639080825 8.765765539908866 0 -1 -1
1970 657 2 0.413 31.43738943250292 -4.93041311742092 9.826803109164409 0 -1 -1
1952 651 2 0.413 34.675344273940816 -4.65746428097194 -11.723822056409436 0 2 1
1887 629 2 0.413 33.953043636343715 -2.1197248436921665 -8.226850034869063 0 0 1
855 285 2 0.413 31.212911055751995 -6.560172133531873 -5.074505339860668 0 1 -1
1885 629 1 -0.826 33.606304456714 -1.3158967648668067 -8.480386347916825 0 0 1
1886 629 2 0.413 33.31466704224018 -1.5093516416676902 -9.340545717189158 0 0 1
1534 512 1 -0.826 35.89519992479591 -10.41812626804183 -2.6615048565284347 0 1 1
1535 512 2 0.413 35.57861419817329 -11.103858489237398 -2.085827459771826 0 1 1
1536 512 2 0.413 35.63720310394594 -10.705870907202664 -3.599915482351136 0 1 1
1669 557 1 -0.826 37.97076071898349 9.550126403986322 -10.277576105024908 0 0 1
1670 557 2 0.413 38.7819879300293 9.80512603475961 -10.798706808451191 0 0 1
1969 657 1 -0.826 31.21069328551708 -5.615611045073032 9.137768613960262 0 -1 -1
2714 905 2 0.413 34.63898918443854 -5.136282354680248 -9.668870023719169 0 0 0
2713 905 1 -0.826 34.623140724113846 -4.814738030239358 -8.751253711952284 0 0 0
2715 905 2 0.413 35.49005394091981 -4.414551683454243 -8.705374815759406 0 0 0
605 202 2 0.413 35.06163101074644 -8.07176985719685 -11.35035163886316 -1 1 1
2724 908 2 0.413 34.53425702603798 -7.2198365575947046 -6.0670268675595 0 -1 0
2765 922 2 0.413 37.8226038281951 -9.449812672863018 -5.195142022730187 0 0 0
2766 922 2 0.413 38.115460782848196 -8.178370863856959 -5.909703261627802 0 0 0
2764 922 1 -0.826 37.461750126820576 -8.507258741432345 -5.262243951882633 0 0 0
2348 783 2 0.413 39.36653366605437 -4.148522880604415 -8.991789837961605 0 1 1
2258 753 2 0.413 37.8785586507243 -1.7179811645997969 -11.924029942369033 0 0 0
2257 753 1 -0.826 37.3038416556993 -1.9134323785203549 -11.137933922028193 0 0 0
2722 908 1 -0.826 34.68203796548286 -8.143380535295146 -6.264604855800412 0 -1 0
2723 908 2 0.413 35.613670915750966 -8.317959319611138 -5.9396867712615435 0 -1 0
1758 586 2 0.413 32.82217167365152 11.99649776963373 -9.554973118419387 0 -1 0
1757 586 2 0.413 34.04102510034077 -11.986466854569814 -8.925211032169528 0 0 0
1881 627 2 0.413 36.25218667686713 10.274439967850952 -4.31585370538346 0 0 0
2583 861 2 0.413 31.10319438085768 -10.737310763787999 12.045520210346737 0 0 0
2581 861 1 -0.826 31.292751888764755 -10.363407813995696 -11.331284074541855 0 0 1
2347 783 1 -0.826 39.368164097157255 -5.1144389507427075 -8.777633316759298 0 1 1
604 202 1 -0.826 34.67467681367842 -8.895467003315717 -11.675484645913654 -1 1 1
606 202 2 0.413 34.37408664816644 -9.141464810569369 -10.782645069229256 -1 1 1
794 265 2 0.413 39.928715776671574 -10.059140069748711 -9.815755682717647 -1 0 0
3011 1004 2 0.413 41.80641697824917 12.12141924790496 -8.354289058448895 0 0 0
1987 663 1 -0.826 39.4056824014623 -10.993048256037282 -5.1391040497416345 0 0 1
1989 663 2 0.413 39.20712500297254 -11.681427299634416 -4.440840027306647 0 0 1
1988 663 2 0.413 40.101923767324124 -11.546911905303697 -5.53702418501047 0 0 1
3010 1004 1 -0.826 41.332095231687546 11.698156867734909 -7.590425936873199 0 0 0
2548 850 1 -0.826 39.55959295534413 -7.380223925265097 -6.798588937572463 0 1 1
2549 850 2 0.413 39.81434951460915 -6.678454693608848 -7.477573259669835 0 1 1
1410 470 2 0.413 40.960363780678804 -9.962829433443341 -3.115498744167523 0 2 1
1408 470 1 -0.826 41.39766318022461 -9.248170973914952 -3.682170291316872 0 2 1
2550 850 2 0.413 40.47506958104609 -7.744800413173919 -6.748883264054342 0 1 1
1409 470 2 0.413 41.174342035810525 -9.47744305327366 -4.609410832264541 0 2 1
2595 865 2 0.413 45.11418639859972 -8.141304511795749 -4.303830664573542 0 1 0
1212 404 2 0.413 46.57674668844393 -7.390793686307464 -5.92859116689264 0 1 -1
1210 404 1 -0.826 47.243416859490836 -7.296709880198839 -6.684510666738989 0 1 -1
2594 865 2 0.413 44.98485763356956 -6.674831140836031 -3.9813769157856953 0 1 0
3012 1004 2 0.413 41.82342742567648 10.859089547273832 -7.460160138619198 0 0 0
909 303 2 0.413 43.688028857671334 -6.619496354689315 -6.485493148107332 -1 0 1
907 303 1 -0.826 42.79662481100294 -6.784619916089437 -6.86920181552588 -1 0 1
2519 840 2 0.413 44.34007906437797 -7.062879754429395 -9.784718434005145 0 0 1
908 303 2 0.413 43.052433975924 -6.926662350664861 -7.86124300974435 -1 0 1
1185 395 2 0.413 43.59577985058319 -11.578937198101865 -10.472951475793035 0 0 1
2401 801 1 -0.826 43.273307282980696 -7.506928035352684 -2.1131928386027603 0 2 1
2402 801 2 0.413 43.89870409640117 -8.17040389325353 -2.377773258304112 0 2 1
795 265 2 0.413 38.72461913650071 -8.935660275338654 -9.739036518216812 -1 0 0
2520 840 2 0.413 42.96104192578763 -7.109301272472447 -10.474668810413093 0 0 1
2518 840 1 -0.826 43.34877906332989 -6.8747109499403285 -9.57813220017041 0 0 1
793 265 1 -0.826 39.47453814314329 -9.265136542866584 -10.276031535141868 -1 0 0
1211 404 2 0.413 47.72103031723471 -6.484899157570349 -6.475665775615238 0 1 -1
2593 865 1 -0.826 45.41563325046456 -7.265052678616056 -4.652785593354368 0 1 0
1348 450 1 -0.826 48.85104863587289 -4.76107540865017 -5.941538089264481 0 1 1
1349 450 2 0.413 49.282159698502326 -4.456758137138417 -5.131065770626763 0 1 1
2075 692 2 0.413 45.97090653843876 11.876946917505666 -10.568761673836445 0 0 1
2076 692 2 0.413 47.04856385989759 -12.123284733747617 -9.489189026143332 0 1 1
2074 692 1 -0.826 46.05407210893892 12.035685512792323 -9.644443285966572 0 0 1
158 53 2 0.413 49.826916583318976 -9.373677135689542 -6.16193952541863 -1 0 0
157 53 1 -0.826 48.83887663739106 -9.436603408304807 -6.015236188597888 -1 0 0
159 53 2 0.413 48.3952327231216 -8.596394911984213 -6.2823067882671 -1 0 0
3130 1044 1 -0.826 54.46670642002296 -2.182734301901526 -3.266951106606884 0 0 1
3131 1044 2 0.413 53.63803207120988 -1.6993193477109116 -3.3777147939011236 0 0 1
924 308 2 0.413 51.27690145479849 -7.698269174663543 -11.05641565057466 -1 0 0
1009 337 1 -0.826 52.84198550950056 -11.038491074778271 -4.393360437340573 -1 1 0
2855 952 2 0.413 46.27295535802157 -9.009937841003223 -9.550045476312595 0 0 1
603 201 2 0.413 46.051815658762195 -2.5850662422328288 -10.394458743554193 -1 0 0
3132 1044 2 0.413 54.00897582251464 -2.9280413389718483 -2.945894221704691 0 0 1
1010 337 2 0.413 53.42690673690768 -11.314019398486261 -5.12611729505556 -1 1 0
2868 956 2 0.413 50.849569462236 12.041893220847568 -9.408512985780398 0 -1 0
922 308 1 -0.826 51.62292514774005 -8.373726225575592 -10.42387296343541 -1 0 0
923 308 2 0.413 52.163958737025 -8.985270958565826 -11.003702952118084 -1 0 0
2866 956 1 -0.826 51.803961626520234 11.938244107538146 -9.272412648149494 0 -1 0
2867 956 2 0.413 51.74529450609309 10.98908355512743 -8.891012767418303 0 -1 0
2693 898 2 0.413 48.1993302295438 -9.05206298459008 -1.9271991671121 0 1 0
2694 898 2 0.413 48.407805295752325 -8.519342638835521 -3.3292721527244247 0 1 0
2692 898 1 -0.826 48.3234803313993 -8.222133846584232 -2.4254253700655877 0 1 0
845 282 2 0.413 54.12554862775528 -6.677785398986381 -4.682758986179765 -1 1 1
1080 360 2 0.413 50.335614022730915 -9.700458388092008 10.349251959482288 0 0 0
2856 952 2 0.413 46.73749796176393 -7.735676663826071 -8.776369984156434 0 0 1
2854 952 1 -0.826 46.280529567418604 -8.049427229046037 -9.5750728758148 0 0 1
710 237 2 0.413 46.589373612473075 -5.009786738970639 -11.642544578126849 -1 0 0
357 119 2 0.413 54.576456943136264 -10.759190401813067 9.963777108759896 -1 -1 -1
3143 1048 2 0.413 52.8347680720961 -8.299803161710305 -7.970098998416175 0 0 1
3142 1048 1 -0.826 53.64953325453564 -8.870219680520577 -8.159264825956765 0 0 1
3144 1048 2 0.413 53.30503413883305 -9.35266002603423 -8.92567756496531 0 0 1
2852 951 2 0.413 59.421088097690046 -3.804010239783686 -6.929402651612056 0 -1 1
2851 951 1 -0.826 59.861579291760535 -3.038364632758528 -6.427974321360397 0 -1 1
3074 1025 2 0.413 56.68327209407133 -6.11597010122151 -6.921447963660898 0 0 0
328 110 1 -0.826 58.75327448472183 -7.406021316349394 -10.166318822141905 -1 1 1
330 110 2 0.413 59.181255142515 -6.984415447983572 -10.930768642645305 -1 1 1
2321 774 2 0.413 -11.663667044959135 -7.476636982092316 -6.275187097912219 1 0 0
2425 809 1 -0.826 50.14270583323295 -6.939093294979913 11.760963179119216 0 -1 -1
2426 809 2 0.413 50.19291180060397 -6.986447528679113 10.7970176854854 0 -1 -1
2427 809 2 0.413 49.180798908785576 -6.85075492216594 11.852689890701338 0 -1 -1
329 110 2 0.413 57.96118334841857 -6.832616168418266 -10.23035582348442 -1 1 1
2914 972 1 -0.826 56.251523131693915 -8.303355337503927 -6.820150978910159 0 1 0
2915 972 2 0.413 56.64707087205649 -9.205191954557193 -6.788475078301411 0 1 0
844 282 1 -0.826 54.242663083155776 -5.842089447314019 -5.101881876764202 -1 1 1
46 16 1 -0.826 53.45601468143214 -4.131953402100083 -10.695433624559545 -1 0 0
47 16 2 0.413 53.14612107154227 -5.0287449868987455 -10.500515559656181 -1 0 0
2781 927 2 0.413 59.93293713421539 -9.011205407136094 -9.793787228780104 0 0 1
2916 972 2 0.413 55.24492220136774 -8.503277946400702 -6.895095746707639 0 1 0
3145 1049 1 -0.826 56.88956716126003 -6.314211780534379 -3.801966415916395 0 1 0
1710 570 2 0.413 59.59664960691717 -3.9790997717328693 -4.651088224612827 0 1 0
1708 570 1 -0.826 59.38233315858989 -4.673463745442193 -3.9578149476684477 0 1 0
1709 570 2 0.413 59.9852845147381 -5.368142783856224 -4.292891800290301 0 1 0
846 282 2 0.413 55.20758740900932 -5.809143040134225 -4.968235667947131 -1 1 1
2905 969 1 -0.826 60.19956187181057 -11.980274468302934 -4.417184704832839 0 0 0
2907 969 2 0.413 60.168916860483094 11.639364842335908 -3.633952430814066 0 -1 0
132 44 2 0.413 55.32639891315688 -7.449706133827026 -11.960678611965315 -1 1 1
130 44 1 -0.826 54.94846800864333 -8.197097477475666 11.85152946941895 -1 1 0
48 16 2 0.413 53.04217662321099 -3.968193709513633 -11.60324424838234 -1 0 0
3106 1036 1 -0.826 -9.88369535700726 -5.2490760105016685 -6.644172246833155 1 0 0
3108 1036 2 0.413 -10.517818391667843 -5.815440728021398 -7.122930323932315 1 0 0
1635 545 2 0.413 -7.948670922572896 -0.0690236853368642 -8.671538464950892 0 0 1
1633 545 1 -0.826 -8.25079429720335 -0.9681445378784339 -9.016312928997786 0 0 1
1634 545 2 0.413 -8.660437378374162 -0.6809358203168525 -9.844326075459794 0 0 1
2306 769 2 0.413 -9.498714145046495 -1.5709032825615843 -5.812888003343588 1 0 0
2121 707 2 0.413 -6.171204344855195 -3.18250860876093 12.113946810235808 1 1 0
2120 707 2 0.413 -5.699122408266383 -1.8422569352137472 -12.07948069625586 1 1 1
2192 731 2 0.413 -10.527948075812514 -1.605976310689579 -8.873595691594359 1 0 1
2191 731 1 -0.826 -11.411967110223346 -1.9179608410492506 -8.628046316699137 1 0 1
342 114 2 0.413 -6.494656921368554 1.397307725672409 -7.870808231312591 0 0 1
2193 731 2 0.413 -11.903673348469903 -1.7753599011043395 -9.47720570803603 1 0 1
2305 769 1 -0.826 -9.47529995171412 -0.6549269859703202 -6.182089488380137 1 0 0
2307 769 2 0.413 -8.587168302152836 -0.4894524094924382 -5.773741090800773 1 0 0
340 114 1 -0.826 -6.922499016849627 0.9711260864989626 -7.084460750849307 0 0 1
341 114 2 0.413 -7.2078247330080645 1.687789600438009 -6.432173723251835 0 0 1
533 178 2 0.413 -7.945210646110272 4.281924402164776 -5.606692445401402 0 1 1
662 221 2 0.413 -11.175280843281719 0.1687978241968935 -6.92371937698494 0 0 0
2364 788 2 0.413 -10.79068606284211 -2.6990075053296465 -5.064286416469286 1 0 1
1655 552 2 0.413 -8.300248160760399 -3.040084390353048 -9.38968570148442 0 1 1