# LAMMPS data file 

490 atoms
80 bonds
130 angles
120 dihedrals

7 atom types
5 bond types
6 angle types
3 dihedral types

-14.2 14.2 xlo xhi
-14.2 14.2 ylo yhi
-25.68 25.68 zlo zhi

Atoms

1 1 1 1.0 -12.78 -12.78 21.419999999999995 
2 1 2 -1.0 -12.78 -9.94 21.419999999999995 
3 1 2 -1.0 -9.94 -12.78 21.419999999999995 
4 1 1 1.0 -9.94 -9.94 21.419999999999995 
5 1 2 -1.0 -12.78 -12.78 24.259999999999994 
6 1 1 1.0 -12.78 -9.94 24.259999999999994 
7 1 1 1.0 -9.94 -12.78 24.259999999999994 
8 1 2 -1.0 -9.94 -9.94 24.259999999999994 
9 1 1 1.0 -12.78 -12.78 27.099999999999994 
10 1 2 -1.0 -12.78 -9.94 27.099999999999994 
11 1 2 -1.0 -9.94 -12.78 27.099999999999994 
12 1 1 1.0 -9.94 -9.94 27.099999999999994 
13 1 2 -1.0 -12.78 -12.78 29.939999999999994 
14 1 1 1.0 -12.78 -9.94 29.939999999999994 
15 1 1 1.0 -9.94 -12.78 29.939999999999994 
16 1 2 -1.0 -9.94 -9.94 29.939999999999994 
17 1 1 1.0 -12.78 -7.1 21.419999999999995 
18 1 2 -1.0 -12.78 -4.26 21.419999999999995 
19 1 2 -1.0 -9.94 -7.1 21.419999999999995 
20 1 1 1.0 -9.94 -4.26 21.419999999999995 
21 1 2 -1.0 -12.78 -7.1 24.259999999999994 
22 1 1 1.0 -12.78 -4.26 24.259999999999994 
23 1 1 1.0 -9.94 -7.1 24.259999999999994 
24 1 2 -1.0 -9.94 -4.26 24.259999999999994 
25 1 1 1.0 -12.78 -7.1 27.099999999999994 
26 1 2 -1.0 -12.78 -4.26 27.099999999999994 
27 1 2 -1.0 -9.94 -7.1 27.099999999999994 
28 1 1 1.0 -9.94 -4.26 27.099999999999994 
29 1 2 -1.0 -12.78 -7.1 29.939999999999994 
30 1 1 1.0 -12.78 -4.26 29.939999999999994 
31 1 1 1.0 -9.94 -7.1 29.939999999999994 
32 1 2 -1.0 -9.94 -4.26 29.939999999999994 
33 1 1 1.0 -12.78 -1.42 21.419999999999995 
34 1 2 -1.0 -12.78 1.42 21.419999999999995 
35 1 2 -1.0 -9.94 -1.42 21.419999999999995 
36 1 1 1.0 -9.94 1.42 21.419999999999995 
37 1 2 -1.0 -12.78 -1.42 24.259999999999994 
38 1 1 1.0 -12.78 1.42 24.259999999999994 
39 1 1 1.0 -9.94 -1.42 24.259999999999994 
40 1 2 -1.0 -9.94 1.42 24.259999999999994 
41 1 1 1.0 -12.78 -1.42 27.099999999999994 
42 1 2 -1.0 -12.78 1.42 27.099999999999994 
43 1 2 -1.0 -9.94 -1.42 27.099999999999994 
44 1 1 1.0 -9.94 1.42 27.099999999999994 
45 1 2 -1.0 -12.78 -1.42 29.939999999999994 
46 1 1 1.0 -12.78 1.42 29.939999999999994 
47 1 1 1.0 -9.94 -1.42 29.939999999999994 
48 1 2 -1.0 -9.94 1.42 29.939999999999994 
49 1 1 1.0 -12.78 4.26 21.419999999999995 
50 1 2 -1.0 -12.78 7.1 21.419999999999995 
51 1 2 -1.0 -9.94 4.26 21.419999999999995 
52 1 1 1.0 -9.94 7.1 21.419999999999995 
53 1 2 -1.0 -12.78 4.26 24.259999999999994 
54 1 1 1.0 -12.78 7.1 24.259999999999994 
55 1 1 1.0 -9.94 4.26 24.259999999999994 
56 1 2 -1.0 -9.94 7.1 24.259999999999994 
57 1 1 1.0 -12.78 4.26 27.099999999999994 
58 1 2 -1.0 -12.78 7.1 27.099999999999994 
59 1 2 -1.0 -9.94 4.26 27.099999999999994 
60 1 1 1.0 -9.94 7.1 27.099999999999994 
61 1 2 -1.0 -12.78 4.26 29.939999999999994 
62 1 1 1.0 -12.78 7.1 29.939999999999994 
63 1 1 1.0 -9.94 4.26 29.939999999999994 
64 1 2 -1.0 -9.94 7.1 29.939999999999994 
65 1 1 1.0 -12.78 9.94 21.419999999999995 
66 1 2 -1.0 -12.78 12.78 21.419999999999995 
67 1 2 -1.0 -9.94 9.94 21.419999999999995 
68 1 1 1.0 -9.94 12.78 21.419999999999995 
69 1 2 -1.0 -12.78 9.94 24.259999999999994 
70 1 1 1.0 -12.78 12.78 24.259999999999994 
71 1 1 1.0 -9.94 9.94 24.259999999999994 
72 1 2 -1.0 -9.94 12.78 24.259999999999994 
73 1 1 1.0 -12.78 9.94 27.099999999999994 
74 1 2 -1.0 -12.78 12.78 27.099999999999994 
75 1 2 -1.0 -9.94 9.94 27.099999999999994 
76 1 1 1.0 -9.94 12.78 27.099999999999994 
77 1 2 -1.0 -12.78 9.94 29.939999999999994 
78 1 1 1.0 -12.78 12.78 29.939999999999994 
79 1 1 1.0 -9.94 9.94 29.939999999999994 
80 1 2 -1.0 -9.94 12.78 29.939999999999994 
81 1 1 1.0 -7.1 -12.78 21.419999999999995 
82 1 2 -1.0 -7.1 -9.94 21.419999999999995 
83 1 2 -1.0 -4.26 -12.78 21.419999999999995 
84 1 1 1.0 -4.26 -9.94 21.419999999999995 
85 1 2 -1.0 -7.1 -12.78 24.259999999999994 
86 1 1 1.0 -7.1 -9.94 24.259999999999994 
87 1 1 1.0 -4.26 -12.78 24.259999999999994 
88 1 2 -1.0 -4.26 -9.94 24.259999999999994 
89 1 1 1.0 -7.1 -12.78 27.099999999999994 
90 1 2 -1.0 -7.1 -9.94 27.099999999999994 
91 1 2 -1.0 -4.26 -12.78 27.099999999999994 
92 1 1 1.0 -4.26 -9.94 27.099999999999994 
93 1 2 -1.0 -7.1 -12.78 29.939999999999994 
94 1 1 1.0 -7.1 -9.94 29.939999999999994 
95 1 1 1.0 -4.26 -12.78 29.939999999999994 
96 1 2 -1.0 -4.26 -9.94 29.939999999999994 
97 1 1 1.0 -7.1 -7.1 21.419999999999995 
98 1 2 -1.0 -7.1 -4.26 21.419999999999995 
99 1 2 -1.0 -4.26 -7.1 21.419999999999995 
100 1 1 1.0 -4.26 -4.26 21.419999999999995 
101 1 2 -1.0 -7.1 -7.1 24.259999999999994 
102 1 1 1.0 -7.1 -4.26 24.259999999999994 
103 1 1 1.0 -4.26 -7.1 24.259999999999994 
104 1 2 -1.0 -4.26 -4.26 24.259999999999994 
105 1 1 1.0 -7.1 -7.1 27.099999999999994 
106 1 2 -1.0 -7.1 -4.26 27.099999999999994 
107 1 2 -1.0 -4.26 -7.1 27.099999999999994 
108 1 1 1.0 -4.26 -4.26 27.099999999999994 
109 1 2 -1.0 -7.1 -7.1 29.939999999999994 
110 1 1 1.0 -7.1 -4.26 29.939999999999994 
111 1 1 1.0 -4.26 -7.1 29.939999999999994 
112 1 2 -1.0 -4.26 -4.26 29.939999999999994 
113 1 1 1.0 -7.1 -1.42 21.419999999999995 
114 1 2 -1.0 -7.1 1.42 21.419999999999995 
115 1 2 -1.0 -4.26 -1.42 21.419999999999995 
116 1 1 1.0 -4.26 1.42 21.419999999999995 
117 1 2 -1.0 -7.1 -1.42 24.259999999999994 
118 1 1 1.0 -7.1 1.42 24.259999999999994 
119 1 1 1.0 -4.26 -1.42 24.259999999999994 
120 1 2 -1.0 -4.26 1.42 24.259999999999994 
121 1 1 1.0 -7.1 -1.42 27.099999999999994 
122 1 2 -1.0 -7.1 1.42 27.099999999999994 
123 1 2 -1.0 -4.26 -1.42 27.099999999999994 
124 1 1 1.0 -4.26 1.42 27.099999999999994 
125 1 2 -1.0 -7.1 -1.42 29.939999999999994 
126 1 1 1.0 -7.1 1.42 29.939999999999994 
127 1 1 1.0 -4.26 -1.42 29.939999999999994 
128 1 2 -1.0 -4.26 1.42 29.939999999999994 
129 1 1 1.0 -7.1 4.26 21.419999999999995 
130 1 2 -1.0 -7.1 7.1 21.419999999999995 
131 1 2 -1.0 -4.26 4.26 21.419999999999995 
132 1 1 1.0 -4.26 7.1 21.419999999999995 
133 1 2 -1.0 -7.1 4.26 24.259999999999994 
134 1 1 1.0 -7.1 7.1 24.259999999999994 
135 1 1 1.0 -4.26 4.26 24.259999999999994 
136 1 2 -1.0 -4.26 7.1 24.259999999999994 
137 1 1 1.0 -7.1 4.26 27.099999999999994 
138 1 2 -1.0 -7.1 7.1 27.099999999999994 
139 1 2 -1.0 -4.26 4.26 27.099999999999994 
140 1 1 1.0 -4.26 7.1 27.099999999999994 
141 1 2 -1.0 -7.1 4.26 29.939999999999994 
142 1 1 1.0 -7.1 7.1 29.939999999999994 
143 1 1 1.0 -4.26 4.26 29.939999999999994 
144 1 2 -1.0 -4.26 7.1 29.939999999999994 
145 1 1 1.0 -7.1 9.94 21.419999999999995 
146 1 2 -1.0 -7.1 12.78 21.419999999999995 
147 1 2 -1.0 -4.26 9.94 21.419999999999995 
148 1 1 1.0 -4.26 12.78 21.419999999999995 
149 1 2 -1.0 -7.1 9.94 24.259999999999994 
150 1 1 1.0 -7.1 12.78 24.259999999999994 
151 1 1 1.0 -4.26 9.94 24.259999999999994 
152 1 2 -1.0 -4.26 12.78 24.259999999999994 
153 1 1 1.0 -7.1 9.94 27.099999999999994 
154 1 2 -1.0 -7.1 12.78 27.099999999999994 
155 1 2 -1.0 -4.26 9.94 27.099999999999994 
156 1 1 1.0 -4.26 12.78 27.099999999999994 
157 1 2 -1.0 -7.1 9.94 29.939999999999994 
158 1 1 1.0 -7.1 12.78 29.939999999999994 
159 1 1 1.0 -4.26 9.94 29.939999999999994 
160 1 2 -1.0 -4.26 12.78 29.939999999999994 
161 1 1 1.0 -1.42 -12.78 21.419999999999995 
162 1 2 -1.0 -1.42 -9.94 21.419999999999995 
163 1 2 -1.0 1.42 -12.78 21.419999999999995 
164 1 1 1.0 1.42 -9.94 21.419999999999995 
165 1 2 -1.0 -1.42 -12.78 24.259999999999994 
166 1 1 1.0 -1.42 -9.94 24.259999999999994 
167 1 1 1.0 1.42 -12.78 24.259999999999994 
168 1 2 -1.0 1.42 -9.94 24.259999999999994 
169 1 1 1.0 -1.42 -12.78 27.099999999999994 
170 1 2 -1.0 -1.42 -9.94 27.099999999999994 
171 1 2 -1.0 1.42 -12.78 27.099999999999994 
172 1 1 1.0 1.42 -9.94 27.099999999999994 
173 1 2 -1.0 -1.42 -12.78 29.939999999999994 
174 1 1 1.0 -1.42 -9.94 29.939999999999994 
175 1 1 1.0 1.42 -12.78 29.939999999999994 
176 1 2 -1.0 1.42 -9.94 29.939999999999994 
177 1 1 1.0 -1.42 -7.1 21.419999999999995 
178 1 2 -1.0 -1.42 -4.26 21.419999999999995 
179 1 2 -1.0 1.42 -7.1 21.419999999999995 
180 1 1 1.0 1.42 -4.26 21.419999999999995 
181 1 2 -1.0 -1.42 -7.1 24.259999999999994 
182 1 1 1.0 -1.42 -4.26 24.259999999999994 
183 1 1 1.0 1.42 -7.1 24.259999999999994 
184 1 2 -1.0 1.42 -4.26 24.259999999999994 
185 1 1 1.0 -1.42 -7.1 27.099999999999994 
186 1 2 -1.0 -1.42 -4.26 27.099999999999994 
187 1 2 -1.0 1.42 -7.1 27.099999999999994 
188 1 1 1.0 1.42 -4.26 27.099999999999994 
189 1 2 -1.0 -1.42 -7.1 29.939999999999994 
190 1 1 1.0 -1.42 -4.26 29.939999999999994 
191 1 1 1.0 1.42 -7.1 29.939999999999994 
192 1 2 -1.0 1.42 -4.26 29.939999999999994 
193 1 1 1.0 -1.42 -1.42 21.419999999999995 
194 1 2 -1.0 -1.42 1.42 21.419999999999995 
195 1 2 -1.0 1.42 -1.42 21.419999999999995 
196 1 1 1.0 1.42 1.42 21.419999999999995 
197 1 2 -1.0 -1.42 -1.42 24.259999999999994 
198 1 1 1.0 -1.42 1.42 24.259999999999994 
199 1 1 1.0 1.42 -1.42 24.259999999999994 
200 1 2 -1.0 1.42 1.42 24.259999999999994 
201 1 1 1.0 -1.42 -1.42 27.099999999999994 
202 1 2 -1.0 -1.42 1.42 27.099999999999994 
203 1 2 -1.0 1.42 -1.42 27.099999999999994 
204 1 1 1.0 1.42 1.42 27.099999999999994 
205 1 2 -1.0 -1.42 -1.42 29.939999999999994 
206 1 1 1.0 -1.42 1.42 29.939999999999994 
207 1 1 1.0 1.42 -1.42 29.939999999999994 
208 1 2 -1.0 1.42 1.42 29.939999999999994 
209 1 1 1.0 -1.42 4.26 21.419999999999995 
210 1 2 -1.0 -1.42 7.1 21.419999999999995 
211 1 2 -1.0 1.42 4.26 21.419999999999995 
212 1 1 1.0 1.42 7.1 21.419999999999995 
213 1 2 -1.0 -1.42 4.26 24.259999999999994 
214 1 1 1.0 -1.42 7.1 24.259999999999994 
215 1 1 1.0 1.42 4.26 24.259999999999994 
216 1 2 -1.0 1.42 7.1 24.259999999999994 
217 1 1 1.0 -1.42 4.26 27.099999999999994 
218 1 2 -1.0 -1.42 7.1 27.099999999999994 
219 1 2 -1.0 1.42 4.26 27.099999999999994 
220 1 1 1.0 1.42 7.1 27.099999999999994 
221 1 2 -1.0 -1.42 4.26 29.939999999999994 
222 1 1 1.0 -1.42 7.1 29.939999999999994 
223 1 1 1.0 1.42 4.26 29.939999999999994 
224 1 2 -1.0 1.42 7.1 29.939999999999994 
225 1 1 1.0 -1.42 9.94 21.419999999999995 
226 1 2 -1.0 -1.42 12.78 21.419999999999995 
227 1 2 -1.0 1.42 9.94 21.419999999999995 
228 1 1 1.0 1.42 12.78 21.419999999999995 
229 1 2 -1.0 -1.42 9.94 24.259999999999994 
230 1 1 1.0 -1.42 12.78 24.259999999999994 
231 1 1 1.0 1.42 9.94 24.259999999999994 
232 1 2 -1.0 1.42 12.78 24.259999999999994 
233 1 1 1.0 -1.42 9.94 27.099999999999994 
234 1 2 -1.0 -1.42 12.78 27.099999999999994 
235 1 2 -1.0 1.42 9.94 27.099999999999994 
236 1 1 1.0 1.42 12.78 27.099999999999994 
237 1 2 -1.0 -1.42 9.94 29.939999999999994 
238 1 1 1.0 -1.42 12.78 29.939999999999994 
239 1 1 1.0 1.42 9.94 29.939999999999994 
240 1 2 -1.0 1.42 12.78 29.939999999999994 
241 1 1 1.0 4.26 -12.78 21.419999999999995 
242 1 2 -1.0 4.26 -9.94 21.419999999999995 
243 1 2 -1.0 7.1 -12.78 21.419999999999995 
244 1 1 1.0 7.1 -9.94 21.419999999999995 
245 1 2 -1.0 4.26 -12.78 24.259999999999994 
246 1 1 1.0 4.26 -9.94 24.259999999999994 
247 1 1 1.0 7.1 -12.78 24.259999999999994 
248 1 2 -1.0 7.1 -9.94 24.259999999999994 
249 1 1 1.0 4.26 -12.78 27.099999999999994 
250 1 2 -1.0 4.26 -9.94 27.099999999999994 
251 1 2 -1.0 7.1 -12.78 27.099999999999994 
252 1 1 1.0 7.1 -9.94 27.099999999999994 
253 1 2 -1.0 4.26 -12.78 29.939999999999994 
254 1 1 1.0 4.26 -9.94 29.939999999999994 
255 1 1 1.0 7.1 -12.78 29.939999999999994 
256 1 2 -1.0 7.1 -9.94 29.939999999999994 
257 1 1 1.0 4.26 -7.1 21.419999999999995 
258 1 2 -1.0 4.26 -4.26 21.419999999999995 
259 1 2 -1.0 7.1 -7.1 21.419999999999995 
260 1 1 1.0 7.1 -4.26 21.419999999999995 
261 1 2 -1.0 4.26 -7.1 24.259999999999994 
262 1 1 1.0 4.26 -4.26 24.259999999999994 
263 1 1 1.0 7.1 -7.1 24.259999999999994 
264 1 2 -1.0 7.1 -4.26 24.259999999999994 
265 1 1 1.0 4.26 -7.1 27.099999999999994 
266 1 2 -1.0 4.26 -4.26 27.099999999999994 
267 1 2 -1.0 7.1 -7.1 27.099999999999994 
268 1 1 1.0 7.1 -4.26 27.099999999999994 
269 1 2 -1.0 4.26 -7.1 29.939999999999994 
270 1 1 1.0 4.26 -4.26 29.939999999999994 
271 1 1 1.0 7.1 -7.1 29.939999999999994 
272 1 2 -1.0 7.1 -4.26 29.939999999999994 
273 1 1 1.0 4.26 -1.42 21.419999999999995 
274 1 2 -1.0 4.26 1.42 21.419999999999995 
275 1 2 -1.0 7.1 -1.42 21.419999999999995 
276 1 1 1.0 7.1 1.42 21.419999999999995 
277 1 2 -1.0 4.26 -1.42 24.259999999999994 
278 1 1 1.0 4.26 1.42 24.259999999999994 
279 1 1 1.0 7.1 -1.42 24.259999999999994 
280 1 2 -1.0 7.1 1.42 24.259999999999994 
281 1 1 1.0 4.26 -1.42 27.099999999999994 
282 1 2 -1.0 4.26 1.42 27.099999999999994 
283 1 2 -1.0 7.1 -1.42 27.099999999999994 
284 1 1 1.0 7.1 1.42 27.099999999999994 
285 1 2 -1.0 4.26 -1.42 29.939999999999994 
286 1 1 1.0 4.26 1.42 29.939999999999994 
287 1 1 1.0 7.1 -1.42 29.939999999999994 
288 1 2 -1.0 7.1 1.42 29.939999999999994 
289 1 1 1.0 4.26 4.26 21.419999999999995 
290 1 2 -1.0 4.26 7.1 21.419999999999995 
291 1 2 -1.0 7.1 4.26 21.419999999999995 
292 1 1 1.0 7.1 7.1 21.419999999999995 
293 1 2 -1.0 4.26 4.26 24.259999999999994 
294 1 1 1.0 4.26 7.1 24.259999999999994 
295 1 1 1.0 7.1 4.26 24.259999999999994 
296 1 2 -1.0 7.1 7.1 24.259999999999994 
297 1 1 1.0 4.26 4.26 27.099999999999994 
298 1 2 -1.0 4.26 7.1 27.099999999999994 
299 1 2 -1.0 7.1 4.26 27.099999999999994 
300 1 1 1.0 7.1 7.1 27.099999999999994 
301 1 2 -1.0 4.26 4.26 29.939999999999994 
302 1 1 1.0 4.26 7.1 29.939999999999994 
303 1 1 1.0 7.1 4.26 29.939999999999994 
304 1 2 -1.0 7.1 7.1 29.939999999999994 
305 1 1 1.0 4.26 9.94 21.419999999999995 
306 1 2 -1.0 4.26 12.78 21.419999999999995 
307 1 2 -1.0 7.1 9.94 21.419999999999995 
308 1 1 1.0 7.1 12.78 21.419999999999995 
309 1 2 -1.0 4.26 9.94 24.259999999999994 
310 1 1 1.0 4.26 12.78 24.259999999999994 
311 1 1 1.0 7.1 9.94 24.259999999999994 
312 1 2 -1.0 7.1 12.78 24.259999999999994 
313 1 1 1.0 4.26 9.94 27.099999999999994 
314 1 2 -1.0 4.26 12.78 27.099999999999994 
315 1 2 -1.0 7.1 9.94 27.099999999999994 
316 1 1 1.0 7.1 12.78 27.099999999999994 
317 1 2 -1.0 4.26 9.94 29.939999999999994 
318 1 1 1.0 4.26 12.78 29.939999999999994 
319 1 1 1.0 7.1 9.94 29.939999999999994 
320 1 2 -1.0 7.1 12.78 29.939999999999994 
321 1 1 1.0 9.94 -12.78 21.419999999999995 
322 1 2 -1.0 9.94 -9.94 21.419999999999995 
323 1 2 -1.0 12.78 -12.78 21.419999999999995 
324 1 1 1.0 12.78 -9.94 21.419999999999995 
325 1 2 -1.0 9.94 -12.78 24.259999999999994 
326 1 1 1.0 9.94 -9.94 24.259999999999994 
327 1 1 1.0 12.78 -12.78 24.259999999999994 
328 1 2 -1.0 12.78 -9.94 24.259999999999994 
329 1 1 1.0 9.94 -12.78 27.099999999999994 
330 1 2 -1.0 9.94 -9.94 27.099999999999994 
331 1 2 -1.0 12.78 -12.78 27.099999999999994 
332 1 1 1.0 12.78 -9.94 27.099999999999994 
333 1 2 -1.0 9.94 -12.78 29.939999999999994 
334 1 1 1.0 9.94 -9.94 29.939999999999994 
335 1 1 1.0 12.78 -12.78 29.939999999999994 
336 1 2 -1.0 12.78 -9.94 29.939999999999994 
337 1 1 1.0 9.94 -7.1 21.419999999999995 
338 1 2 -1.0 9.94 -4.26 21.419999999999995 
339 1 2 -1.0 12.78 -7.1 21.419999999999995 
340 1 1 1.0 12.78 -4.26 21.419999999999995 
341 1 2 -1.0 9.94 -7.1 24.259999999999994 
342 1 1 1.0 9.94 -4.26 24.259999999999994 
343 1 1 1.0 12.78 -7.1 24.259999999999994 
344 1 2 -1.0 12.78 -4.26 24.259999999999994 
345 1 1 1.0 9.94 -7.1 27.099999999999994 
346 1 2 -1.0 9.94 -4.26 27.099999999999994 
347 1 2 -1.0 12.78 -7.1 27.099999999999994 
348 1 1 1.0 12.78 -4.26 27.099999999999994 
349 1 2 -1.0 9.94 -7.1 29.939999999999994 
350 1 1 1.0 9.94 -4.26 29.939999999999994 
351 1 1 1.0 12.78 -7.1 29.939999999999994 
352 1 2 -1.0 12.78 -4.26 29.939999999999994 
353 1 1 1.0 9.94 -1.42 21.419999999999995 
354 1 2 -1.0 9.94 1.42 21.419999999999995 
355 1 2 -1.0 12.78 -1.42 21.419999999999995 
356 1 1 1.0 12.78 1.42 21.419999999999995 
357 1 2 -1.0 9.94 -1.42 24.259999999999994 
358 1 1 1.0 9.94 1.42 24.259999999999994 
359 1 1 1.0 12.78 -1.42 24.259999999999994 
360 1 2 -1.0 12.78 1.42 24.259999999999994 
361 1 1 1.0 9.94 -1.42 27.099999999999994 
362 1 2 -1.0 9.94 1.42 27.099999999999994 
363 1 2 -1.0 12.78 -1.42 27.099999999999994 
364 1 1 1.0 12.78 1.42 27.099999999999994 
365 1 2 -1.0 9.94 -1.42 29.939999999999994 
366 1 1 1.0 9.94 1.42 29.939999999999994 
367 1 1 1.0 12.78 -1.42 29.939999999999994 
368 1 2 -1.0 12.78 1.42 29.939999999999994 
369 1 1 1.0 9.94 4.26 21.419999999999995 
370 1 2 -1.0 9.94 7.1 21.419999999999995 
371 1 2 -1.0 12.78 4.26 21.419999999999995 
372 1 1 1.0 12.78 7.1 21.419999999999995 
373 1 2 -1.0 9.94 4.26 24.259999999999994 
374 1 1 1.0 9.94 7.1 24.259999999999994 
375 1 1 1.0 12.78 4.26 24.259999999999994 
376 1 2 -1.0 12.78 7.1 24.259999999999994 
377 1 1 1.0 9.94 4.26 27.099999999999994 
378 1 2 -1.0 9.94 7.1 27.099999999999994 
379 1 2 -1.0 12.78 4.26 27.099999999999994 
380 1 1 1.0 12.78 7.1 27.099999999999994 
381 1 2 -1.0 9.94 4.26 29.939999999999994 
382 1 1 1.0 9.94 7.1 29.939999999999994 
383 1 1 1.0 12.78 4.26 29.939999999999994 
384 1 2 -1.0 12.78 7.1 29.939999999999994 
385 1 1 1.0 9.94 9.94 21.419999999999995 
386 1 2 -1.0 9.94 12.78 21.419999999999995 
387 1 2 -1.0 12.78 9.94 21.419999999999995 
388 1 1 1.0 12.78 12.78 21.419999999999995 
389 1 2 -1.0 9.94 9.94 24.259999999999994 
390 1 1 1.0 9.94 12.78 24.259999999999994 
391 1 1 1.0 12.78 9.94 24.259999999999994 
392 1 2 -1.0 12.78 12.78 24.259999999999994 
393 1 1 1.0 9.94 9.94 27.099999999999994 
394 1 2 -1.0 9.94 12.78 27.099999999999994 
395 1 2 -1.0 12.78 9.94 27.099999999999994 
396 1 1 1.0 12.78 12.78 27.099999999999994 
397 1 2 -1.0 9.94 9.94 29.939999999999994 
398 1 1 1.0 9.94 12.78 29.939999999999994 
399 1 1 1.0 12.78 9.94 29.939999999999994 
400 1 2 -1.0 12.78 12.78 29.939999999999994 
401 2 5 0.416 -12.374440189760564 2.3707035717591127 -13.46361763777669 
402 2 7 -0.682 -12.272805900503318 3.33547992489174 -13.495376964957865 
403 2 6 0.372 -11.316964019494412 3.631474343553208 -14.518865549341905 
404 2 4 -0.029 -11.669242338993605 3.265064870038387 -15.49592145842414 
405 2 4 -0.029 -10.356129038288017 3.135538477254502 -14.310696831531372 
406 2 3 -0.285 -11.125847416266199 5.138670532093764 -14.56817720246906 
407 2 4 0.079 -10.412169825398761 5.407573733035789 -15.354947435503691 
408 2 4 0.079 -10.743777161987854 5.511618812708614 -13.611194037153783 
409 2 4 0.079 -12.077215687072224 5.640310553518362 -14.778627354153999 
410 3 5 0.416 -14.994114728400437 2.964257198014127 4.083486773042525 
411 3 7 -0.682 -14.030323121675027 2.884053841848101 4.000995830236211 
412 3 6 0.372 -13.499269474638425 2.730591080009218 5.321301281422314 
413 3 4 -0.029 -13.90538214562375 1.825478510169548 5.7996713270214215 
414 3 4 -0.029 -13.775688240322372 3.587526033786778 5.955135337495538 
415 3 3 -0.285 -11.98644641930458 2.627059635600291 5.215257945074503 
416 3 4 0.079 -11.542578237253522 2.4897011087627616 6.207611564929994 
417 3 4 0.079 -11.566753220405829 3.536424967872093 4.770513985952997 
418 3 4 0.079 -11.70230013963478 1.7740175646258964 4.588669019994385 
419 4 5 0.416 5.591841373230391 -0.4396251124258056 -10.73628501545639 
420 4 7 -0.682 6.368679056154882 0.08407971461651577 -10.990033047371517 
421 4 6 0.372 7.466257646336132 -0.3619977686962536 -10.186844777418003 
422 4 4 -0.029 7.667317217342977 -1.4302435476124375 -10.364102135170503 
423 4 4 -0.029 7.238773547629778 -0.24538672329379396 -9.115797015368091 
424 4 3 -0.285 8.68877658513349 0.4637679117032935 -10.553117942242912 
425 4 4 0.079 9.557841613636278 0.1386108342026647 -9.970322192466643 
426 4 4 0.079 8.512907088716771 1.526184867050558 -10.350078509778378 
427 4 4 0.079 8.924586441329629 0.35058679738336607 -11.617362891123378 
428 5 5 0.416 4.983231571586529 -11.62433667061349 -3.8064854583883863 
429 5 7 -0.682 5.615448803734167 -10.962295950910521 -4.129185089640845 
430 5 6 0.372 6.927729337244334 -11.424141162750495 -3.7924447127856276 
431 5 4 -0.029 7.1321554462883325 -12.394294764365089 -4.2720342470318 
432 5 4 -0.029 7.0229339080857365 -11.570305809963283 -2.705217760736385 
433 5 3 -0.285 7.932405607911312 -10.387811035674634 -4.269144833184635 
434 5 4 0.079 8.953906783885914 -10.714949438637296 -4.045163031329822 
435 5 4 0.079 7.760015140266011 -9.425563873584588 -3.773920839794342 
436 5 4 0.079 7.846947926607468 -10.23870547591308 -5.351502482434593 
437 6 5 0.416 -0.6152401119358463 10.948436042608494 -0.8969759804528195 
438 6 7 -0.682 -0.8916406904885981 10.947453698596728 0.03347194950117138 
439 6 6 0.372 -0.9861067169045834 12.312648183807243 0.4531092537745195 
440 6 4 -0.029 -1.7301571006872931 12.853697407313053 -0.15240617152830604 
441 6 4 -0.029 -0.021808605380271517 12.828282975659677 0.32372465960595703 
442 6 3 -0.285 -1.3953797572692581 12.331942026815588 1.9169128170873795 
443 6 4 0.079 -1.4965516129213845 13.363748736014294 2.271583375844415 
444 6 4 0.079 -0.6458027365230541 11.824789735104764 2.534825206424611 
445 6 4 0.079 -2.356528646719023 11.823650630120405 2.054267221788045 
446 7 5 0.416 6.102677054485754 10.412187717945445 1.549659624657854 
447 7 7 -0.682 6.466734472336636 9.627718704039802 1.9903433637603731 
448 7 6 0.372 6.407362347639277 9.863277862181945 3.400932642593201 
449 7 4 -0.029 5.366119932494712 10.018540873600864 3.7245092120974514 
450 7 4 -0.029 6.971825572729994 10.769845937436665 3.669272077107329 
451 7 3 -0.285 6.995898885747428 8.653912212774813 4.109210141360836 
452 7 4 0.079 6.951443954519491 8.788621663935022 5.195731727722663 
453 7 4 0.079 8.042911354767405 8.508150896880135 3.8204136621231455 
454 7 4 0.079 6.43744593134902 7.747164197281441 3.850420848193499 
455 8 5 0.416 -13.064641521819357 -0.6714970532231217 -7.288096155188238 
456 8 7 -0.682 -12.510101843972793 -1.4235178739978718 -7.025261557018936 
457 8 6 0.372 -12.442506305552811 -1.4261062864053036 -5.595506534981681 
458 8 4 -0.029 -13.447852444785173 -1.5388612958810448 -5.16012209071224 
459 8 4 -0.029 -12.029357048871363 -0.4759589171085006 -5.222655186602527 
460 8 3 -0.285 -11.557524429589096 -2.584340972262101 -5.164348747612892 
461 8 4 0.079 -11.495478211143565 -2.631245485563931 -4.07137012559821 
462 8 4 0.079 -10.544148911802532 -2.4666011414758042 -5.564464068629184 
463 8 4 0.079 -11.963632394749117 -3.5349109184122307 -5.528390863645164 
464 9 5 0.416 -1.425676633002287 -9.644044450134137 8.895214823908798 
465 9 7 -0.682 -0.869052051247015 -10.395644013635728 9.15482754761414 
466 9 6 0.372 -0.7985048746940034 -10.402042735918481 10.584427992482349 
467 9 4 -0.029 -1.8027177279075062 -10.518071739373838 11.021564106228459 
468 9 4 -0.029 -0.38654172038856 -9.452079529082255 10.959056775170444 
469 9 3 -0.285 0.08974226677022246 -11.559637723587016 11.010559904124875 
470 9 4 0.079 0.1541371586653848 -11.609433390577342 12.103274745343473 
471 9 4 0.079 1.1020469062857674 -11.4387048099216 10.60868999342934 
472 9 4 0.079 -0.3151606022615719 -12.510033328366278 10.644724660877845 
473 10 5 0.416 -0.2582668824097816 -0.061623771906695435 7.438308538098886 
474 10 7 -0.682 0.5027738670948092 -0.6221645849163444 7.2175313433443264 
475 10 6 0.372 1.1897176541512755 -0.9115372252601521 8.43947528157505 
476 10 4 -0.029 0.5279997831376603 -1.4462617513015124 9.138898834634388 
477 10 4 -0.029 1.509176452141974 0.017404603035968247 8.936972634024707 
478 10 3 -0.285 2.400364667823168 -1.7702090027693136 8.111429350779702 
479 10 4 0.079 2.9442225162373594 -2.0291352445352056 9.026758732377312 
480 10 4 0.079 3.0834910451500406 -1.2358607544752933 7.44158221892041 
481 10 4 0.079 2.091005360375303 -2.6990856234242777 7.618967568880313 
482 11 5 0.416 -9.339838612352876 13.436508479748046 2.648241394984775 
483 11 7 -0.682 -8.570026910162765 13.755564632372058 2.1505218857994852 
484 11 6 0.372 -7.424801070121308 13.615200835352441 2.997593936761745 
485 11 4 -0.029 -7.274099300018103 12.559782648865252 3.273955284028238 
486 11 4 -0.029 -7.558803648877286 14.182008738165498 3.9320791265114994 
487 11 3 -0.285 -6.210547085154019 14.132535666666344 2.2435717366805554 
488 11 4 0.079 -5.3072462855998275 14.024664578272368 2.854361003601678 
489 11 4 0.079 -6.334212287375262 15.19179294377698 1.991449114604542 
490 11 4 0.079 -6.067576061374153 13.571137057160886 1.3132898161101276 

Bonds

1 5 401 402 
2 2 402 403 
3 4 403 404 
4 4 403 405 
5 3 403 406 
6 1 406 407 
7 1 406 408 
8 1 406 409 
9 5 410 411 
10 2 411 412 
11 4 412 413 
12 4 412 414 
13 3 412 415 
14 1 415 416 
15 1 415 417 
16 1 415 418 
17 5 419 420 
18 2 420 421 
19 4 421 422 
20 4 421 423 
21 3 421 424 
22 1 424 425 
23 1 424 426 
24 1 424 427 
25 5 428 429 
26 2 429 430 
27 4 430 431 
28 4 430 432 
29 3 430 433 
30 1 433 434 
31 1 433 435 
32 1 433 436 
33 5 437 438 
34 2 438 439 
35 4 439 440 
36 4 439 441 
37 3 439 442 
38 1 442 443 
39 1 442 444 
40 1 442 445 
41 5 446 447 
42 2 447 448 
43 4 448 449 
44 4 448 450 
45 3 448 451 
46 1 451 452 
47 1 451 453 
48 1 451 454 
49 5 455 456 
50 2 456 457 
51 4 457 458 
52 4 457 459 
53 3 457 460 
54 1 460 461 
55 1 460 462 
56 1 460 463 
57 5 464 465 
58 2 465 466 
59 4 466 467 
60 4 466 468 
61 3 466 469 
62 1 469 470 
63 1 469 471 
64 1 469 472 
65 5 473 474 
66 2 474 475 
67 4 475 476 
68 4 475 477 
69 3 475 478 
70 1 478 479 
71 1 478 480 
72 1 478 481 
73 5 482 483 
74 2 483 484 
75 4 484 485 
76 4 484 486 
77 3 484 487 
78 1 487 488 
79 1 487 489 
80 1 487 490 

Angles

1 1 401 402 403 
2 3 402 403 404 
3 3 402 403 405 
4 2 402 403 406 
5 4 404 403 405 
6 6 404 403 406 
7 6 405 403 406 
8 6 403 406 407 
9 6 403 406 408 
10 6 403 406 409 
11 5 407 406 408 
12 5 407 406 409 
13 5 408 406 409 
14 1 410 411 412 
15 3 411 412 413 
16 3 411 412 414 
17 2 411 412 415 
18 4 413 412 414 
19 6 413 412 415 
20 6 414 412 415 
21 6 412 415 416 
22 6 412 415 417 
23 6 412 415 418 
24 5 416 415 417 
25 5 416 415 418 
26 5 417 415 418 
27 1 419 420 421 
28 3 420 421 422 
29 3 420 421 423 
30 2 420 421 424 
31 4 422 421 423 
32 6 422 421 424 
33 6 423 421 424 
34 6 421 424 425 
35 6 421 424 426 
36 6 421 424 427 
37 5 425 424 426 
38 5 425 424 427 
39 5 426 424 427 
40 1 428 429 430 
41 3 429 430 431 
42 3 429 430 432 
43 2 429 430 433 
44 4 431 430 432 
45 6 431 430 433 
46 6 432 430 433 
47 6 430 433 434 
48 6 430 433 435 
49 6 430 433 436 
50 5 434 433 435 
51 5 434 433 436 
52 5 435 433 436 
53 1 437 438 439 
54 3 438 439 440 
55 3 438 439 441 
56 2 438 439 442 
57 4 440 439 441 
58 6 440 439 442 
59 6 441 439 442 
60 6 439 442 443 
61 6 439 442 444 
62 6 439 442 445 
63 5 443 442 444 
64 5 443 442 445 
65 5 444 442 445 
66 1 446 447 448 
67 3 447 448 449 
68 3 447 448 450 
69 2 447 448 451 
70 4 449 448 450 
71 6 449 448 451 
72 6 450 448 451 
73 6 448 451 452 
74 6 448 451 453 
75 6 448 451 454 
76 5 452 451 453 
77 5 452 451 454 
78 5 453 451 454 
79 1 455 456 457 
80 3 456 457 458 
81 3 456 457 459 
82 2 456 457 460 
83 4 458 457 459 
84 6 458 457 460 
85 6 459 457 460 
86 6 457 460 461 
87 6 457 460 462 
88 6 457 460 463 
89 5 461 460 462 
90 5 461 460 463 
91 5 462 460 463 
92 1 464 465 466 
93 3 465 466 467 
94 3 465 466 468 
95 2 465 466 469 
96 4 467 466 468 
97 6 467 466 469 
98 6 468 466 469 
99 6 466 469 470 
100 6 466 469 471 
101 6 466 469 472 
102 5 470 469 471 
103 5 470 469 472 
104 5 471 469 472 
105 1 473 474 475 
106 3 474 475 476 
107 3 474 475 477 
108 2 474 475 478 
109 4 476 475 477 
110 6 476 475 478 
111 6 477 475 478 
112 6 475 478 479 
113 6 475 478 480 
114 6 475 478 481 
115 5 479 478 480 
116 5 479 478 481 
117 5 480 478 481 
118 1 482 483 484 
119 3 483 484 485 
120 3 483 484 486 
121 2 483 484 487 
122 4 485 484 486 
123 6 485 484 487 
124 6 486 484 487 
125 6 484 487 488 
126 6 484 487 489 
127 6 484 487 490 
128 5 488 487 489 
129 5 488 487 490 
130 5 489 487 490 

Dihedrals

1 3 401 402 403 404 
2 3 401 402 403 405 
3 1 401 402 403 406 
4 2 402 403 406 407 
5 3 402 403 406 408 
6 3 402 403 406 409 
7 3 404 403 406 407 
8 3 404 403 406 408 
9 3 404 403 406 409 
10 3 405 403 406 407 
11 3 405 403 406 408 
12 3 405 403 406 409 
13 3 410 411 412 413 
14 3 410 411 412 414 
15 1 410 411 412 415 
16 2 411 412 415 416 
17 3 411 412 415 417 
18 3 411 412 415 418 
19 3 413 412 415 416 
20 3 413 412 415 417 
21 3 413 412 415 418 
22 3 414 412 415 416 
23 3 414 412 415 417 
24 3 414 412 415 418 
25 3 419 420 421 422 
26 3 419 420 421 423 
27 1 419 420 421 424 
28 2 420 421 424 425 
29 3 420 421 424 426 
30 3 420 421 424 427 
31 3 422 421 424 425 
32 3 422 421 424 426 
33 3 422 421 424 427 
34 3 423 421 424 425 
35 3 423 421 424 426 
36 3 423 421 424 427 
37 3 428 429 430 431 
38 3 428 429 430 432 
39 1 428 429 430 433 
40 2 429 430 433 434 
41 3 429 430 433 435 
42 3 429 430 433 436 
43 3 431 430 433 434 
44 3 431 430 433 435 
45 3 431 430 433 436 
46 3 432 430 433 434 
47 3 432 430 433 435 
48 3 432 430 433 436 
49 3 437 438 439 440 
50 3 437 438 439 441 
51 1 437 438 439 442 
52 2 438 439 442 443 
53 3 438 439 442 444 
54 3 438 439 442 445 
55 3 440 439 442 443 
56 3 440 439 442 444 
57 3 440 439 442 445 
58 3 441 439 442 443 
59 3 441 439 442 444 
60 3 441 439 442 445 
61 3 446 447 448 449 
62 3 446 447 448 450 
63 1 446 447 448 451 
64 2 447 448 451 452 
65 3 447 448 451 453 
66 3 447 448 451 454 
67 3 449 448 451 452 
68 3 449 448 451 453 
69 3 449 448 451 454 
70 3 450 448 451 452 
71 3 450 448 451 453 
72 3 450 448 451 454 
73 3 455 456 457 458 
74 3 455 456 457 459 
75 1 455 456 457 460 
76 2 456 457 460 461 
77 3 456 457 460 462 
78 3 456 457 460 463 
79 3 458 457 460 461 
80 3 458 457 460 462 
81 3 458 457 460 463 
82 3 459 457 460 461 
83 3 459 457 460 462 
84 3 459 457 460 463 
85 3 464 465 466 467 
86 3 464 465 466 468 
87 1 464 465 466 469 
88 2 465 466 469 470 
89 3 465 466 469 471 
90 3 465 466 469 472 
91 3 467 466 469 470 
92 3 467 466 469 471 
93 3 467 466 469 472 
94 3 468 466 469 470 
95 3 468 466 469 471 
96 3 468 466 469 472 
97 3 473 474 475 476 
98 3 473 474 475 477 
99 1 473 474 475 478 
100 2 474 475 478 479 
101 3 474 475 478 480 
102 3 474 475 478 481 
103 3 476 475 478 479 
104 3 476 475 478 480 
105 3 476 475 478 481 
106 3 477 475 478 479 
107 3 477 475 478 480 
108 3 477 475 478 481 
109 3 482 483 484 485 
110 3 482 483 484 486 
111 1 482 483 484 487 
112 2 483 484 487 488 