LAMMPS data file via write_data, version 15 Sep 2022, timestep = 20000

4948 atoms
5 atom types
2432 bonds
1 bond types
1216 angles
1 angle types

-16.16 16.16 xlo xhi
-16.16 16.16 ylo yhi
-52.52 52.52 zlo zhi

Masses

1 15.9994
2 1.008
3 28.99
4 35.453
5 26.9815

Pair Coeffs # lj/cut/tip4p/long

1 0.185199 3.1589
2 0 0
3 0.0469 2.4299
4 0.15 4.0447
5 11.697 2.574

Bond Coeffs # harmonic

1 0 0.9572

Angle Coeffs # harmonic

1 0 104.52

Atoms # full

258 0 5 0 -13.621844208776867 -13.376949752869743 -21.583446403959183 0 0 0
262 0 5 0 -9.592501043572563 -13.33448858439337 -21.62589781882087 0 0 0
290 0 5 0 -13.703792698205909 -9.35733504029889 -21.54334739589805 0 0 0
261 0 5 0 -11.620187516163966 -15.342078659395543 -21.598520803195104 0 0 0
293 0 5 0 -11.569275203041043 -11.341887679804476 -21.586207175759075 0 0 0
294 0 5 0 -9.622728616590587 -9.36680625106334 -21.603499370890077 0 0 0
40 0 5 0 -11.652094238967457 -9.41382071400038 -23.550616258967096 0 0 0
4 0 5 0 -15.67446201639483 -13.314868298485484 -23.558267194822577 0 0 0
8 0 5 0 -11.647314740549207 -13.342148856475536 -23.60613334367074 0 0 0
35 0 5 0 -13.641141839872018 -11.331384798328962 -23.58223060188041 0 0 0
39 0 5 0 -9.635519642355034 -11.318128016286497 -23.61809548757723 0 0 0
3 0 5 0 -13.566250550141596 -15.403699657969641 -23.624817500314073 0 0 0
289 0 5 0 -15.709023439283708 -11.409201088562385 -21.48845334232618 0 0 0
7 0 5 0 -9.63584204736186 -15.331600334511714 -23.537537004767707 0 0 0
257 0 5 0 -15.598401799132002 -15.338018559239845 -21.62508893618358 0 0 0
291 0 5 0 -13.641592646903051 -11.376693971041073 -19.575432913849497 0 0 0
264 0 5 0 -11.587772871304347 -13.390339007042728 -19.564917170471567 0 0 0
295 0 5 0 -9.601075914556056 -11.34017880746608 -19.572792137669992 0 0 0
296 0 5 0 -11.633879192518936 -9.356331223258083 -19.621701251664238 0 0 0
260 0 5 0 -15.58033551547605 -13.384840993637273 -19.63421620042744 0 0 0
259 0 5 0 -13.660421497679698 -15.438566443311965 -19.650103183644266 0 0 0
263 0 5 0 -9.576666575658603 -15.428600853133537 -19.61826942352954 0 0 0
36 0 5 0 -15.627700452267293 -9.437913246086445 -23.597662516122732 0 0 0
292 0 5 0 -15.721693429804066 -9.357465595256118 -19.571960432311283 0 0 0
34 0 5 0 -13.694009286063316 -9.3521392948492 -25.598045238638342 0 0 0
38 0 5 0 -9.633678195491434 -9.325159947797996 -25.62278881691043 0 0 0
6 0 5 0 -9.544890529569566 -13.323397375118311 -25.681794836939307 0 0 0
1 0 5 0 -15.651026780506468 -15.37230276074812 -25.509226118719592 0 0 0
37 0 5 0 -11.622353318443526 -11.434926257848444 -25.67652086327008 0 0 0
33 0 5 0 -15.737909266426456 -11.310308495461598 -25.692992534713284 0 0 0
2 0 5 0 -13.707302868920172 -13.29511173424599 -25.655747447001726 0 0 0
5 0 5 0 -11.537317634337237 -15.355902382245661 -25.607065142335344 0 0 0
514 0 5 0 -13.627010007471995 -13.443212386300303 -17.593439392981725 0 0 0
530 0 5 0 -13.670901201875001 -9.252777940545313 -17.599656772021465 0 0 0
531 0 5 0 -11.65542538676284 -11.354894864966651 -17.618026649556615 0 0 0
516 0 5 0 -9.59608506326749 -13.402977840143729 -17.659417644536628 0 0 0
532 0 5 0 -9.677528383767456 -9.36509574445301 -17.570241104087614 0 0 0
529 0 5 0 -15.663070777023776 -11.3359618560392 -17.562028343985386 0 0 0
515 0 5 0 -11.551352191428984 -15.432202419218564 -17.653165182906413 0 0 0
513 0 5 0 -15.633179440021161 -15.492113328875648 -17.699609933436 0 0 0
297 0 5 0 -7.578333946661261 -11.330895935676455 -21.65638727803209 0 0 0
12 0 5 0 -7.626878482233384 -13.332867606614002 -23.652197460388194 0 0 0
266 0 5 0 -5.655039682083614 -13.30022269375903 -21.624338899417157 0 0 0
270 0 5 0 -1.5610618330012658 -13.429784374664935 -21.705928276879327 0 0 0
298 0 5 0 -5.5922689292216035 -9.343468381545003 -21.58977637791402 0 0 0
301 0 5 0 -3.5585946960390493 -11.371047955369031 -21.613879833156414 0 0 0
302 0 5 0 -1.57121313424258 -9.341192530542102 -21.584051913866656 0 0 0
44 0 5 0 -7.509302380874076 -9.370144147289965 -23.592380383846432 0 0 0
16 0 5 0 -3.5038899287625487 -13.333069281160286 -23.57349046276518 0 0 0
43 0 5 0 -5.584070626581675 -11.332034317512285 -23.605181768750352 0 0 0
47 0 5 0 -1.5413982313867431 -11.250875936193792 -23.554393726612652 0 0 0
11 0 5 0 -5.543379381822747 -15.287568717165033 -23.567607620070458 0 0 0
48 0 5 0 -3.5469314341275724 -9.276455220991313 -23.56784322679731 0 0 0
265 0 5 0 -7.577913902457078 -15.379158823838994 -21.565991508235758 0 0 0
15 0 5 0 -1.5603052646058841 -15.457758474351888 -23.59543187461491 0 0 0
269 0 5 0 -3.5664990822352425 -15.402255922344903 -21.569469168787435 0 0 0
300 0 5 0 -7.617637289729484 -9.4015262514714 -19.665086543685913 0 0 0
268 0 5 0 -7.58903054481432 -13.37364884362207 -19.569964541200005 0 0 0
299 0 5 0 -5.591887117564429 -11.386619357621724 -19.534287507267003 0 0 0
272 0 5 0 -3.5486751855226575 -13.334889783653484 -19.659669678340215 0 0 0
303 0 5 0 -1.5056221657276205 -11.376910120739497 -19.66420726208886 0 0 0
304 0 5 0 -3.590780498807275 -9.403058053360006 -19.635552578687598 0 0 0
267 0 5 0 -5.630839457608195 -15.338172015961625 -19.6577239638784 0 0 0
271 0 5 0 -1.5583878451244215 -15.408601468767703 -19.64615505796932 0 0 0
14 0 5 0 -1.5343305742469444 -13.318112503642483 -25.510026279467432 0 0 0
41 0 5 0 -7.499325535096219 -11.284069484882338 -25.64435121639241 0 0 0
42 0 5 0 -5.494188601630061 -9.296450545800184 -25.677438055938396 0 0 0
13 0 5 0 -3.5350913406849975 -15.343620086560552 -25.535578742631447 0 0 0
10 0 5 0 -5.569604297027374 -13.336654985294892 -25.63280064637807 0 0 0
9 0 5 0 -7.592358912914604 -15.385566543796811 -25.645170567802502 0 0 0
46 0 5 0 -1.5727384535002014 -9.28214668119239 -25.542977304224408 0 0 0
45 0 5 0 -3.520095276596542 -11.276536583047601 -25.566410978874185 0 0 0
517 0 5 0 -7.625709679161252 -15.416123626153627 -17.615165957245743 0 0 0
533 0 5 0 -7.515219720733011 -11.421966549856851 -17.553020573790516 0 0 0
536 0 5 0 -1.5164065457486378 -9.307237033602755 -17.649508047277543 0 0 0
518 0 5 0 -5.552277451830198 -13.446402872969275 -17.5802180359575 0 0 0
520 0 5 0 -1.5127528816651739 -13.403181750321203 -17.780621571585165 0 0 0
534 0 5 0 -5.538848527965659 -9.318209293085461 -17.6393502584688 0 0 0
535 0 5 0 -3.5305023211163267 -11.374964484302806 -17.545989478633395 0 0 0
519 0 5 0 -3.5912702191032584 -15.39624226900093 -17.661172554896623 0 0 0
305 0 5 0 0.5254602440473832 -11.34599786333677 -21.650518813477206 0 0 0
273 0 5 0 0.4844966181810908 -15.46334528220694 -21.67984078323178 0 0 0
52 0 5 0 0.4495280414230525 -9.295168848812859 -23.55030271743374 0 0 0
20 0 5 0 0.5235113449374122 -13.415345078656742 -23.52666419219917 0 0 0
274 0 5 0 2.5803399384602455 -13.367220977672462 -21.603717184095757 0 0 0
309 0 5 0 4.522115608698086 -11.353729106405108 -21.654550103136632 0 0 0
278 0 5 0 6.576321996030332 -13.441628127992933 -21.571592656229605 0 0 0
306 0 5 0 2.52441468302727 -9.313125800093639 -21.64651681244173 0 0 0
310 0 5 0 6.5870222441206865 -9.333989285371304 -21.499426488629076 0 0 0
51 0 5 0 2.437505057394746 -11.29048651637992 -23.57825052241224 0 0 0
55 0 5 0 6.520357761653486 -11.364236252844735 -23.594368841347116 0 0 0
24 0 5 0 4.578182881935346 -13.327801410931643 -23.552079953066485 0 0 0
56 0 5 0 4.523181495814628 -9.26347002748762 -23.582826741039504 0 0 0
277 0 5 0 4.506559522004731 -15.437809651961658 -21.553780435110248 0 0 0
19 0 5 0 2.5344680402160598 -15.34864609722785 -23.539507188238915 0 0 0
23 0 5 0 6.576188981410544 -15.385746946909393 -23.510047809744282 0 0 0
276 0 5 0 0.5151206594856977 -13.345847786324347 -19.7422539297385 0 0 0
308 0 5 0 0.5065121035199062 -9.3886319735662 -19.712464059571456 0 0 0
307 0 5 0 2.5597517898766937 -11.32401040675571 -19.657655757489387 0 0 0
280 0 5 0 4.536698623493172 -13.38023224820989 -19.598610888069658 0 0 0
311 0 5 0 6.539130007840232 -11.400249868331484 -19.577911933733308 0 0 0
312 0 5 0 4.530360227660672 -9.37698619687117 -19.638588660975483 0 0 0
275 0 5 0 2.4904490068809504 -15.424862182008662 -19.65375463493373 0 0 0
279 0 5 0 6.614163482972145 -15.432109871769038 -19.564000894281563 0 0 0
49 0 5 0 0.47057127354869305 -11.368787436372198 -25.559393260484505 0 0 0
22 0 5 0 6.475169210288791 -13.345556457643697 -25.621849330199495 0 0 0
53 0 5 0 4.487342198967647 -11.320803593465293 -25.53411741511701 0 0 0
50 0 5 0 2.453170442290346 -9.157398208525116 -25.596597907725208 0 0 0
54 0 5 0 6.55584453179634 -9.354421482800221 -25.642499096105734 0 0 0
17 0 5 0 0.5035774738852891 -15.389149946031962 -25.509837972930566 0 0 0
18 0 5 0 2.4931503225944303 -13.351668995939047 -25.49455978049021 0 0 0
21 0 5 0 4.5408116122384445 -15.406892658645882 -25.438754550189902 0 0 0
521 0 5 0 0.4470142335201363 -15.401801441701256 -17.764330459615515 0 0 0
539 0 5 0 4.470790170571866 -11.35649719671393 -17.54899290281161 0 0 0
537 0 5 0 0.5116569937789562 -11.389954848820876 -17.704641775677747 0 0 0
538 0 5 0 2.5195725722917612 -9.335589817218716 -17.592250207549256 0 0 0
540 0 5 0 6.558497030321204 -9.30602436321074 -17.746633782095014 0 0 0
522 0 5 0 2.4582041630164144 -13.407045025706086 -17.619724335010353 0 0 0
524 0 5 0 6.520444720630635 -13.370137671160734 -17.581419367770486 0 0 0
523 0 5 0 4.493861800803741 -15.309128138963372 -17.666174807863417 0 0 0
60 0 5 0 8.58860376037062 -9.320963121586908 -23.595267895546808 0 0 0
281 0 5 0 8.60053980417734 -15.361737547677961 -21.57916829650319 0 0 0
313 0 5 0 8.583297781492853 -11.368307864678828 -21.58751304142927 0 0 0
28 0 5 0 8.54241583109649 -13.373517691789493 -23.524722077324736 0 0 0
286 0 5 0 14.611051830414805 -13.348216734540848 -21.534131926611895 0 0 0
314 0 5 0 10.563302692585799 -9.3858328863128 -21.622420292293384 0 0 0
317 0 5 0 12.618448153630862 -11.352430496805201 -21.56294294752162 0 0 0
318 0 5 0 14.655912641551396 -9.339280177285104 -21.590421548550054 0 0 0
282 0 5 0 10.56836394547031 -13.328687032624194 -21.611742496214088 0 0 0
32 0 5 0 12.624211294445065 -13.266523343237886 -23.601735621759463 0 0 0
63 0 5 0 14.651177219719186 -11.370035118960933 -23.59091628894733 0 0 0
31 0 5 0 14.661826444507717 -15.36746255689882 -23.579294098492518 0 0 0
59 0 5 0 10.552353642933346 -11.326022602347031 -23.602712776495398 0 0 0
64 0 5 0 12.658349437935748 -9.392399016916993 -23.605966929477777 0 0 0
285 0 5 0 12.702056964456535 -15.335643740833516 -21.6275556137237 0 0 0
27 0 5 0 10.608964037053022 -15.344998588339724 -23.572516820634803 0 0 0
316 0 5 0 8.611483855767013 -9.30086388334526 -19.697460050472227 0 0 0
284 0 5 0 8.623473665506108 -13.349585333092874 -19.519642098721356 0 0 0
288 0 5 0 12.60199881257462 -13.38094560995744 -19.629685710087703 0 0 0
315 0 5 0 10.56295696770402 -11.405621299519549 -19.611275605087908 0 0 0
319 0 5 0 14.621731029280387 -11.344943813722196 -19.551882721538316 0 0 0
320 0 5 0 12.591091859873046 -9.369570061513146 -19.644755714253154 0 0 0
287 0 5 0 14.645058469806767 -15.390325548515063 -19.678526903046585 0 0 0
283 0 5 0 10.566969378794116 -15.41501420819817 -19.616324292240357 0 0 0
61 0 5 0 12.602000082282933 -11.317584851016914 -25.65953070242509 0 0 0
25 0 5 0 8.50036841859382 -15.305069422061507 -25.455727436045564 0 0 0
26 0 5 0 10.560829166026453 -13.352283859400064 -25.581163115333243 0 0 0
30 0 5 0 14.663232157063733 -13.38442521703546 -25.58063104866383 0 0 0
29 0 5 0 12.670354894648767 -15.361075716061235 -25.568510644576534 0 0 0
57 0 5 0 8.539603206445374 -11.461989374562718 -25.609303366688057 0 0 0
62 0 5 0 14.539186186900405 -9.277765967155402 -25.62207760854019 0 0 0
58 0 5 0 10.596475677178905 -9.277896561314375 -25.638005438048864 0 0 0
528 0 5 0 14.698321766002033 -13.468854447963198 -17.692448669739065 0 0 0
542 0 5 0 10.66626661653761 -9.424993243112144 -17.64843974653492 0 0 0
544 0 5 0 14.590201366558295 -9.410394271131166 -17.607106441776896 0 0 0
526 0 5 0 10.533332981772075 -13.414568977645196 -17.497549299655624 0 0 0
543 0 5 0 12.585093966127356 -11.47318760875301 -17.55975122635174 0 0 0
527 0 5 0 12.609005500232827 -15.337084480222385 -17.65046473027199 0 0 0
525 0 5 0 8.632517341014411 -15.424205271526516 -17.558384425656264 0 0 0
541 0 5 0 8.52924181181319 -11.324200824142359 -17.501141871023478 0 0 0
67 0 5 0 -13.653605600544443 -7.328433331544578 -23.50012873890525 0 0 0
71 0 5 0 -9.62923641195004 -7.34458944651028 -23.566405948557982 0 0 0
321 0 5 0 -15.746770941992626 -7.355722283530693 -21.61210501227017 0 0 0
325 0 5 0 -11.630146445283868 -7.34136451028377 -21.584546301768086 0 0 0
322 0 5 0 -13.688581393727857 -5.321282858306421 -21.580373098180146 0 0 0
354 0 5 0 -13.64226536511389 -1.2425859907627614 -21.554256125535318 0 0 0
357 0 5 0 -11.654094270565837 -3.2790189481611436 -21.561800638100692 0 0 0
358 0 5 0 -9.560721674902458 -1.2221837366903072 -21.64601979385525 0 0 0
326 0 5 0 -9.635636994096846 -5.347373612534302 -21.603938211739422 0 0 0
72 0 5 0 -11.673967120111355 -5.329327013999418 -23.616201555487855 0 0 0
99 0 5 0 -13.6631194932755 -3.2192933740108276 -23.549471997669073 0 0 0
103 0 5 0 -9.68252885836658 -3.371585783333163 -23.42853460893625 0 0 0
104 0 5 0 -11.671934702015463 -1.2379020096663482 -23.601225089188883 0 0 0
100 0 5 0 -15.661796234829747 -1.3124138770629208 -23.576905699936862 0 0 0
353 0 5 0 -15.747066881429694 -3.304509736537427 -21.60534242663815 0 0 0
68 0 5 0 -15.652678249115299 -5.293281824746879 -23.586304954055397 0 0 0
327 0 5 0 -9.629837865911497 -7.405689467927458 -19.65465693587172 0 0 0
323 0 5 0 -13.703816959772826 -7.339666091744343 -19.662200690377745 0 0 0
328 0 5 0 -11.708088550479172 -5.365214847734495 -19.66508128016315 0 0 0
355 0 5 0 -13.641371082052872 -3.304673806105583 -19.69625653848657 0 0 0
359 0 5 0 -9.610913130086658 -3.2762734985705975 -19.686145095358995 0 0 0
360 0 5 0 -11.608884121614311 -1.24593684977787 -19.6183966190526 0 0 0
356 0 5 0 -15.706231746229433 -1.2834280055527476 -19.674541101736715 0 0 0
324 0 5 0 -15.721237794269207 -5.282420124941781 -19.63996176108792 0 0 0
70 0 5 0 -9.582321811038033 -5.273543272690533 -25.50903044668607 0 0 0
66 0 5 0 -13.57898689206336 -5.305676801345707 -25.49907305612057 0 0 0
69 0 5 0 -11.692434114671489 -7.408954018881075 -25.406310551239613 0 0 0
101 0 5 0 -11.625343654872733 -3.267008003479347 -25.582084581912962 0 0 0
65 0 5 0 -15.528257419294121 -7.366370481535588 -25.587529302623377 0 0 0
102 0 5 0 -9.563152193959255 -1.2564376919475115 -25.420806944658406 0 0 0
97 0 5 0 -15.650646907201272 -3.3104830627161808 -25.58547139742263 0 0 0
98 0 5 0 -13.67604140846902 -1.2647213086890614 -25.69546114069563 0 0 0
545 0 5 0 -15.784291435697606 -7.318839501948553 -17.72512047506591 0 0 0
546 0 5 0 -13.668551110490633 -5.241568879853129 -17.647312946233885 0 0 0
563 0 5 0 -11.640706027908326 -3.304604897585165 -17.725813893523704 0 0 0
548 0 5 0 -9.697320579945318 -5.266905618742867 -17.721781671043086 0 0 0
562 0 5 0 -13.623082473814707 -1.2942228092076495 -17.68266181721357 0 0 0
547 0 5 0 -11.656462873155142 -7.260317840490521 -17.634554405188528 0 0 0
564 0 5 0 -9.593356344801974 -1.2454289542763142 -17.647121676131924 0 0 0
561 0 5 0 -15.597848879424095 -3.273358316790946 -17.70340671696071 0 0 0
105 0 5 0 -7.538375519689617 -3.2533810202925277 -25.567175976971924 0 0 0
329 0 5 0 -7.6439264019872 -7.410623743455065 -21.64119079638882 0 0 0
361 0 5 0 -7.627477418410274 -3.2906550883593297 -21.554723104678832 0 0 0
333 0 5 0 -3.5415884952142243 -7.30587215860849 -21.555279638719128 0 0 0
79 0 5 0 -1.5656828086057877 -7.265185072035621 -23.553469106393013 0 0 0
75 0 5 0 -5.547291017199331 -7.322976376822391 -23.58554177963326 0 0 0
108 0 5 0 -7.575891152497824 -1.1887809212153853 -23.532172604357537 0 0 0
76 0 5 0 -7.5786884663907585 -5.285347659529818 -23.536367899149838 0 0 0
334 0 5 0 -1.6139326611876095 -5.232528462926781 -21.59566140836209 0 0 0
366 0 5 0 -1.57369366909537 -1.2701231303596534 -21.632795198984958 0 0 0
330 0 5 0 -5.585097471526555 -5.2794203284120504 -21.588799252641326 0 0 0
362 0 5 0 -5.533262795707286 -1.2746651860592033 -21.573085134181557 0 0 0
365 0 5 0 -3.539851992308572 -3.2439600312416763 -21.56341035170991 0 0 0
80 0 5 0 -3.6280451243121683 -5.290412332721241 -23.55725840214616 0 0 0
112 0 5 0 -3.5649734177650827 -1.2723205637281354 -23.626904758485566 0 0 0
111 0 5 0 -1.5924492151043423 -3.242690011202195 -23.518378879542286 0 0 0
107 0 5 0 -5.594280425340204 -3.273491977324036 -23.51251111031024 0 0 0
364 0 5 0 -7.525767484542691 -1.286748123814166 -19.61161565739367 0 0 0
332 0 5 0 -7.634854095355217 -5.315112624590444 -19.62170843079906 0 0 0
331 0 5 0 -5.623689702058552 -7.411951658763226 -19.576909960197884 0 0 0
335 0 5 0 -1.5073164679668745 -7.285464616470866 -19.67372059009875 0 0 0
336 0 5 0 -3.527343652637919 -5.296791125840645 -19.62184133064745 0 0 0
363 0 5 0 -5.571357988882666 -3.2768919488303356 -19.640718945706404 0 0 0
367 0 5 0 -1.4924751844681927 -3.2772797391952726 -19.633933910150763 0 0 0
368 0 5 0 -3.553335040443275 -1.2853877635330053 -19.526515708076708 0 0 0
78 0 5 0 -1.6679325448976394 -5.180297853923566 -25.439405402136284 0 0 0
106 0 5 0 -5.586123508006441 -1.214102419547442 -25.57808361634714 0 0 0
110 0 5 0 -1.543414806787609 -1.2530975135704825 -25.665866131607707 0 0 0
73 0 5 0 -7.654321899585888 -7.364840826055908 -25.56088589957485 0 0 0
109 0 5 0 -3.5535649318413074 -3.2108117267748018 -25.664699271246615 0 0 0
77 0 5 0 -3.580305704503557 -7.255671862362631 -25.71910535396248 0 0 0
74 0 5 0 -5.5738030788260655 -5.272701659701127 -25.56680622917193 0 0 0
568 0 5 0 -1.4994096855726091 -1.2604294033430412 -17.624783273763637 0 0 0
565 0 5 0 -7.587773298099862 -3.316642749173322 -17.74112895750236 0 0 0
551 0 5 0 -3.531223835456129 -7.337804820874419 -17.699673405268467 0 0 0
552 0 5 0 -1.4997422610713258 -5.253470117221627 -17.70303136947773 0 0 0
566 0 5 0 -5.534023756461095 -1.3242220268207796 -17.53760224916878 0 0 0
567 0 5 0 -3.5182890139031313 -3.3520024245443776 -17.504494575492643 0 0 0
549 0 5 0 -7.723342927346293 -7.419680057553012 -17.64881970179839 0 0 0
550 0 5 0 -5.6096136779423444 -5.41382993704375 -17.651409012388445 0 0 0
84 0 5 0 0.4384443904304931 -5.2474426306416015 -23.532085580377743 0 0 0
337 0 5 0 0.5159147907917988 -7.247909779688083 -21.624829316008157 0 0 0
372 0 5 0 0.4912297033224686 -1.2480586327881498 -19.707757121839098 0 0 0
341 0 5 0 4.570435998474324 -7.303953683306084 -21.599120435801705 0 0 0
83 0 5 0 2.5133835987391895 -7.289155218988795 -23.607382206061683 0 0 0
116 0 5 0 0.47984105723610726 -1.2600843310171679 -23.590278069008843 0 0 0
369 0 5 0 0.43679099826832557 -3.2546424371047076 -21.615581545656195 0 0 0
87 0 5 0 6.600303963243491 -7.378234898090401 -23.52318338286185 0 0 0
120 0 5 0 4.521899310511936 -1.2727856606177272 -23.64616400638183 0 0 0
88 0 5 0 4.577436593236983 -5.385023916148086 -23.70065701691574 0 0 0
338 0 5 0 2.5420582895989083 -5.275585586024437 -21.615569113535628 0 0 0
342 0 5 0 6.590999302634484 -5.314027370026373 -21.65501317582092 0 0 0
370 0 5 0 2.5362453067017503 -1.2733360024256208 -21.68636387667977 0 0 0
373 0 5 0 4.565016981433916 -3.2974500819537145 -21.647159708204775 0 0 0
374 0 5 0 6.535917312964226 -1.2855017240708935 -21.731377367585193 0 0 0
119 0 5 0 6.587305239549455 -3.284192185800221 -23.610233307643163 0 0 0
115 0 5 0 2.4924220230589786 -3.297017151647885 -23.62383794631088 0 0 0
343 0 5 0 6.494904917067714 -7.2744439353077475 -19.676314220001572 0 0 0
339 0 5 0 2.4484122476213313 -7.3262206291074525 -19.68818626833764 0 0 0
340 0 5 0 0.5012602227973814 -5.261734755585607 -19.70753593439091 0 0 0
376 0 5 0 4.603302716498455 -1.2946519309333937 -19.694875928256717 0 0 0
375 0 5 0 6.642459379170589 -3.2459078606220086 -19.643668070975107 0 0 0
371 0 5 0 2.516860558657382 -3.248142532178032 -19.773607296821545 0 0 0
344 0 5 0 4.528520106279088 -5.242045264027303 -19.6231189709302 0 0 0
118 0 5 0 6.515749171135854 -1.266811972664187 -25.648094406979215 0 0 0
114 0 5 0 2.4720639513092575 -1.3070964748812632 -25.646499549422085 0 0 0
117 0 5 0 4.613705603646624 -3.275123376720508 -25.574778301250962 0 0 0
81 0 5 0 0.47430124589520134 -7.203713901511685 -25.57379386280113 0 0 0
113 0 5 0 0.4743814775937572 -3.3279581561357388 -25.550931870099898 0 0 0
85 0 5 0 4.642069706079898 -7.286838020669319 -25.714175820986366 0 0 0
82 0 5 0 2.537086469421386 -5.371818445438343 -25.664804574320893 0 0 0
86 0 5 0 6.611553403779257 -5.286258679347839 -25.568909068094523 0 0 0
570 0 5 0 2.458206611997732 -1.2228676339360234 -17.614112306579386 0 0 0
571 0 5 0 4.446913490111418 -3.23110840559463 -17.67738195794108 0 0 0
553 0 5 0 0.46326594734243576 -7.344606718267609 -17.79409726903785 0 0 0
555 0 5 0 4.5332115719882315 -7.317215748953781 -17.62149863659121 0 0 0
569 0 5 0 0.6078783196709379 -3.2784379640341514 -17.71589957179181 0 0 0
556 0 5 0 6.4962295582074105 -5.187598207037364 -17.666725894873363 0 0 0
554 0 5 0 2.5704185948809224 -5.3348471472478165 -17.678631387670325 0 0 0
572 0 5 0 6.520650808490294 -1.3128601609021182 -17.64899617868548 0 0 0
92 0 5 0 8.593974791585406 -5.287231899868949 -23.65084857050447 0 0 0
124 0 5 0 8.570935586580728 -1.2813622272568528 -23.625288318581806 0 0 0
95 0 5 0 14.62439248334275 -7.370953181333977 -23.545335098514936 0 0 0
345 0 5 0 8.582487173997778 -7.3059377620525945 -21.595276795687514 0 0 0
377 0 5 0 8.552792072540242 -3.2919134062950177 -21.617303436079737 0 0 0
349 0 5 0 12.588784568882586 -7.3052262528677705 -21.623957490294313 0 0 0
91 0 5 0 10.508505165566437 -7.317710210447488 -23.60562246691506 0 0 0
128 0 5 0 12.543131933225403 -1.328708961145577 -23.591974325997242 0 0 0
381 0 5 0 12.581480052685091 -3.3278724138274622 -21.626996002563764 0 0 0
378 0 5 0 10.581193419070773 -1.3198721736400287 -21.624880938926907 0 0 0
382 0 5 0 14.545216086336797 -1.3222096733127802 -21.620647698021404 0 0 0
346 0 5 0 10.58047569673762 -5.289736229331443 -21.59411480723518 0 0 0
350 0 5 0 14.574770459284892 -5.355828760211715 -21.68332387720336 0 0 0
123 0 5 0 10.543844981049796 -3.279955753928956 -23.58724546562524 0 0 0
127 0 5 0 14.621876900782793 -3.292441024241328 -23.644157150427336 0 0 0
96 0 5 0 12.505876834339453 -5.323704960009949 -23.677247204143303 0 0 0
348 0 5 0 8.556573640309837 -5.340737227591484 -19.61930556761057 0 0 0
351 0 5 0 14.556819462681345 -7.379514648778661 -19.622681904628394 0 0 0
347 0 5 0 10.56236254367679 -7.3242016876441935 -19.5705467967402 0 0 0
384 0 5 0 12.541300216990228 -1.3544431188606265 -19.637648267711736 0 0 0
380 0 5 0 8.511724278345424 -1.2588174240704166 -19.649402518383546 0 0 0
383 0 5 0 14.539803775745584 -3.3315169907943663 -19.686264789910517 0 0 0
379 0 5 0 10.546242749729634 -3.315028556975264 -19.631497692918604 0 0 0
352 0 5 0 12.530818273374697 -5.289839619256317 -19.614480196723285 0 0 0
126 0 5 0 14.575790023073589 -1.3045329291339198 -25.623492380661997 0 0 0
125 0 5 0 12.580036289937059 -3.290251078826376 -25.559497266291203 0 0 0
90 0 5 0 10.471348321003168 -5.31130932738264 -25.65463224655466 0 0 0
94 0 5 0 14.606034768307726 -5.39324502211767 -25.587402386380038 0 0 0
121 0 5 0 8.583056841742113 -3.265865327786425 -25.67203745850715 0 0 0
93 0 5 0 12.576750789700318 -7.265509856368414 -25.63672599588034 0 0 0
122 0 5 0 10.578099818188614 -1.2926728195345105 -25.729507790350628 0 0 0
89 0 5 0 8.527526547322411 -7.3401360101820226 -25.620531653964193 0 0 0
557 0 5 0 8.551610361046086 -7.310544346536477 -17.585444982610912 0 0 0
573 0 5 0 8.5054942461641 -3.262646240025971 -17.602307954211202 0 0 0
559 0 5 0 12.573400094533095 -7.363467698862051 -17.590167055356677 0 0 0
558 0 5 0 10.606883018666206 -5.334313255037788 -17.585994649774843 0 0 0
560 0 5 0 14.553631741206322 -5.289089092540047 -17.557472093883295 0 0 0
574 0 5 0 10.522057369489499 -1.2836501596386147 -17.683547917079352 0 0 0
576 0 5 0 14.626591654887603 -1.3165122762893664 -17.758457081945327 0 0 0
575 0 5 0 12.573264451594952 -3.2814158339165096 -17.645358630481457 0 0 0
389 0 5 0 -11.604988964210376 0.7622399319849574 -21.596802041294914 0 0 0
131 0 5 0 -13.661809387646567 0.7578915975749827 -23.62570526365548 0 0 0
135 0 5 0 -9.644944148740782 0.8250556711112154 -23.570072806800123 0 0 0
417 0 5 0 -15.732410786298539 4.732942162420482 -21.580487327260652 0 0 0
418 0 5 0 -13.607797462416741 6.805970991981071 -21.582904640818583 0 0 0
422 0 5 0 -9.569169121316824 6.846431128933099 -21.67064473442479 0 0 0
421 0 5 0 -11.585722357058943 4.77265732147838 -21.618972817924885 0 0 0
390 0 5 0 -9.597388402172918 2.7707081491336254 -21.612302020075965 0 0 0
386 0 5 0 -13.603779456841487 2.7100816729835313 -21.640306241130546 0 0 0
136 0 5 0 -11.631464908504208 2.765326207690983 -23.66017143259151 0 0 0
163 0 5 0 -13.722993071713029 4.78520680877378 -23.59323116228462 0 0 0
167 0 5 0 -9.644564740027084 4.775174986326845 -23.614417926988583 0 0 0
168 0 5 0 -11.712568678780288 6.8218853264475 -23.645636954812886 0 0 0
164 0 5 0 -15.613272390670186 6.870846417914522 -23.58550646320987 0 0 0
385 0 5 0 -15.617746152663276 0.6950588924952125 -21.61616779470368 0 0 0
132 0 5 0 -15.66842237328504 2.711312025929876 -23.553762135445538 0 0 0
391 0 5 0 -9.526345360870728 0.685310603531149 -19.646462023478882 0 0 0
387 0 5 0 -13.613850398381027 0.7288912875848429 -19.613209164117112 0 0 0
419 0 5 0 -13.649376784278827 4.735466870994388 -19.724050440072116 0 0 0
424 0 5 0 -11.59738505804638 6.779077684854748 -19.73892859169469 0 0 0
423 0 5 0 -9.583982470285525 4.7976937782606415 -19.713445969538956 0 0 0
392 0 5 0 -11.628918815956032 2.794838786818332 -19.61892773295409 0 0 0
420 0 5 0 -15.638784622645176 6.783846515424943 -19.764622757623453 0 0 0
388 0 5 0 -15.702585753732796 2.6748808951077385 -19.628545734567517 0 0 0
133 0 5 0 -11.577009974220031 0.788791017361445 -25.58322860694632 0 0 0
134 0 5 0 -9.602811188335457 2.780340526932607 -25.703840567299608 0 0 0
161 0 5 0 -15.68014355165753 4.795288479690998 -25.657990478714076 0 0 0
166 0 5 0 -9.696772588990394 6.814584103735558 -25.652560669794283 0 0 0
130 0 5 0 -13.764432447767417 2.7241417664586565 -25.650026002123894 0 0 0
162 0 5 0 -13.671663628991094 6.737959908928529 -25.60666600428834 0 0 0
165 0 5 0 -11.652606504636148 4.69380787797821 -25.70102561607 0 0 0
129 0 5 0 -15.727760185416537 0.672582226109646 -25.627899730535145 0 0 0
579 0 5 0 -11.635137925971097 0.7151468086880121 -17.56563197407664 0 0 0
596 0 5 0 -9.673012338095687 6.7807726884578114 -17.704117203342914 0 0 0
595 0 5 0 -11.652405068370877 4.756765971510747 -17.617792157679364 0 0 0
594 0 5 0 -13.594539094640831 6.753961218489348 -17.64308888154134 0 0 0
580 0 5 0 -9.631323916356767 2.7256929942703363 -17.619803061395935 0 0 0
578 0 5 0 -13.691111056013678 2.8192382946221555 -17.646820900707176 0 0 0
593 0 5 0 -15.743382864557798 4.795850481519562 -17.76865335493932 0 0 0
577 0 5 0 -15.670210639499018 0.6993374971474117 -17.6201521220101 0 0 0
140 0 5 0 -7.623314421110551 2.814448578295987 -23.584075015855746 0 0 0
393 0 5 0 -7.467035927215185 0.7492595134318225 -21.666784229786657 0 0 0
143 0 5 0 -1.6447618447926358 0.8063038588087527 -23.63055256094939 0 0 0
397 0 5 0 -3.6197391387661133 0.786688561069508 -21.5690448707965 0 0 0
139 0 5 0 -5.497142160487936 0.7898723235312194 -23.591549212441056 0 0 0
425 0 5 0 -7.6115225978908665 4.720331906580426 -21.629454224684313 0 0 0
430 0 5 0 -1.5521455018203187 6.7631807767831 -21.613874985921267 0 0 0
429 0 5 0 -3.543502381360095 4.813502111053568 -21.561691357180262 0 0 0
426 0 5 0 -5.599869482352241 6.794195270505897 -21.61347258698874 0 0 0
398 0 5 0 -1.5520352814630742 2.7837364732951704 -21.656391554514123 0 0 0
394 0 5 0 -5.602049851561679 2.8129741390738507 -21.5740287061712 0 0 0
144 0 5 0 -3.5382537234079994 2.8460126705489244 -23.629138609146903 0 0 0
172 0 5 0 -7.623185370234937 6.8396099709667615 -23.611984993078085 0 0 0
176 0 5 0 -3.5558122860671553 6.7241571048411 -23.623151025936654 0 0 0
175 0 5 0 -1.5182624443850439 4.775039017318954 -23.5907602948325 0 0 0
171 0 5 0 -5.564734251897716 4.844648621828782 -23.617987493235923 0 0 0
428 0 5 0 -7.565369316192074 6.77808487676362 -19.643053392899066 0 0 0
395 0 5 0 -5.585214646114476 0.6945501917064244 -19.563004733236685 0 0 0
399 0 5 0 -1.564950495928612 0.723896140618093 -19.59738998526416 0 0 0
396 0 5 0 -7.555305108987025 2.746981712535394 -19.631708359648584 0 0 0
400 0 5 0 -3.487085202016985 2.7664800075132696 -19.519806926113485 0 0 0
432 0 5 0 -3.4938216192185116 6.750788234105994 -19.648378257240793 0 0 0
431 0 5 0 -1.387218468632643 4.751786589298326 -19.65386461945454 0 0 0
427 0 5 0 -5.556524369881989 4.7838316548295134 -19.612182869794065 0 0 0
138 0 5 0 -5.643611797774818 2.932526981662112 -25.636803478573842 0 0 0
173 0 5 0 -3.4828258401801366 4.850244957127493 -25.683395585138303 0 0 0
137 0 5 0 -7.473386646024962 0.810105272796465 -25.58619877885787 0 0 0
170 0 5 0 -5.566614209075605 6.842890927376496 -25.623892541633396 0 0 0
141 0 5 0 -3.532062960051889 0.815514496442455 -25.651174542180186 0 0 0
169 0 5 0 -7.604562445413601 4.87049786651598 -25.64289738009511 0 0 0
142 0 5 0 -1.4313262562418143 2.8007682325459853 -25.644813117462043 0 0 0
174 0 5 0 -1.4327329227579275 6.78027737438883 -25.611924121666625 0 0 0
581 0 5 0 -7.6105384190534435 0.7848140800210432 -17.641619722689054 0 0 0
583 0 5 0 -3.556061986405285 0.6905314718221526 -17.58588669038899 0 0 0
597 0 5 0 -7.504949814659172 4.720862538978317 -17.674707098633718 0 0 0
599 0 5 0 -3.5038400478523117 4.813600038157496 -17.65066995682735 0 0 0
584 0 5 0 -1.533186244521194 2.8647155605000507 -17.5666260053265 0 0 0
582 0 5 0 -5.546838360501376 2.7287412799615014 -17.59045833800204 0 0 0
600 0 5 0 -1.4443497475522902 6.85131652229134 -17.743309975741973 0 0 0
598 0 5 0 -5.601536037977022 6.851145857566807 -17.581231645907454 0 0 0
177 0 5 0 0.5229790832735859 4.7547753276853735 -25.83787000311175 0 0 0