LAMMPS data file via write_data, version 15 Sep 2022, timestep = 20000

4948 atoms
5 atom types
2432 bonds
1 bond types
1216 angles
1 angle types

-16.16 16.16 xlo xhi
-16.16 16.16 ylo yhi
-52.52 52.52 zlo zhi

Masses

1 15.9994
2 1.008
3 28.99
4 35.453
5 26.9815

Pair Coeffs # lj/cut/tip4p/long

1 0.185199 3.1589
2 0 0
3 0.0469 2.4299
4 0.15 4.0447
5 11.697 2.574

Bond Coeffs # harmonic

1 0 0.9572

Angle Coeffs # harmonic

1 0 104.52

Atoms # full

355 0 5 0 -10.759609497254642 15.540782424554099 -19.78385092467127 0 -1 0
383 0 5 0 -14.810328443271342 15.51646806116911 -19.762480391427548 1 -1 0
353 0 5 0 -12.813765269013219 15.484814619789539 -21.70075192604937 0 -1 0
357 0 5 0 -8.772206999363059 15.456812871382377 -21.712120816351838 0 -1 0
99 0 5 0 -10.824025553834606 15.592808093399972 -23.692294570704416 0 -1 0
127 0 5 0 -14.809890984775713 15.561114296921236 -23.70466956312512 1 -1 0
97 0 5 0 -12.812611356416898 15.614404660470823 -25.736794729477175 0 -1 0
101 0 5 0 -8.770851539542821 15.519293246494167 -25.67373253611691 0 -1 0
360 0 5 0 -8.743222032222246 -14.824711218197189 -19.799493033889245 0 0 0
356 0 5 0 -12.833101265005734 -14.786200139289159 -19.745863523612684 0 0 0
354 0 5 0 -10.762380883094265 -14.753846389490818 -21.6931152582118 0 0 0
382 0 5 0 -14.801949871296976 -14.712696144526003 -21.684450795544667 1 0 0
104 0 5 0 -8.7204214346781 -14.830999524013993 -23.68817655905841 0 0 0
100 0 5 0 -12.860726380123785 -14.736724679057813 -23.7418960137935 0 0 0
126 0 5 0 -14.88159566158586 -14.835465423665516 -25.770432630967623 1 0 0
98 0 5 0 -10.75605003599589 -14.71506976743677 -25.710928478490338 0 0 0
387 0 5 0 -10.811973610109668 -12.772007174477341 -19.758321231449646 0 0 0
389 0 5 0 -8.755075147494264 -12.76314969495211 -21.66395502021624 0 0 0
385 0 5 0 -12.824848912877744 -12.73324359730931 -21.690447855402343 0 0 0
415 0 5 0 -14.908750125913237 -12.726464832910576 -19.706705289325306 1 0 0
159 0 5 0 -14.9080699168022 -12.765183508381165 -23.703050294014947 1 0 0
131 0 5 0 -10.731445666172187 -12.716828086967428 -23.660577796104604 0 0 0
129 0 5 0 -12.866748898960957 -12.77498977466095 -25.59940689098684 0 0 0
133 0 5 0 -8.71671441447063 -12.775207106652367 -25.58249402780516 0 0 0
388 0 5 0 -12.854848075818296 -10.718685465346017 -19.76487639777591 0 0 0
386 0 5 0 -10.768639045853886 -10.724723336176067 -21.674899423542215 0 0 0
414 0 5 0 -14.865158745001816 -10.788423996056103 -21.760394112095646 1 0 0
132 0 5 0 -12.761869450628938 -10.707571882193804 -23.64491905943735 0 0 0
136 0 5 0 -8.776440386190677 -10.746402182359681 -23.626433313922888 0 0 0
392 0 5 0 -8.753672329566358 -10.721637857430192 -19.736245702315106 0 0 0
130 0 5 0 -10.75882289825993 -10.725382583730045 -25.67766931503715 0 0 0
158 0 5 0 -14.842995894242137 -10.795933667174452 -25.63684905070366 1 0 0
562 0 5 0 -10.80060161786884 -14.852166276440279 -17.77083499731885 0 0 0
563 0 5 0 -8.73268108413864 15.445630562733964 -17.770277282715 0 -1 0
561 0 5 0 -12.822411339339103 15.521129126045686 -17.887382929043994 0 -1 0
576 0 5 0 -14.896424474100458 -14.841680697083179 -17.73539447896909 1 0 0
577 0 5 0 -12.759965744123798 -12.659559070871712 -17.667778768914285 0 0 0
579 0 5 0 -8.776096766381958 -12.80391784699992 -17.80774032800886 0 0 0
592 0 5 0 -14.772766823041957 -10.72234610587145 -17.646400732020805 1 0 0
578 0 5 0 -10.797451274202396 -10.695320682776748 -17.79416282682069 0 0 0
359 0 5 0 -6.742862019770059 15.481356860971479 -19.788525486123543 0 -1 0
365 0 5 0 -0.7684990609041963 15.479784161575063 -21.692861182250567 0 -1 0
363 0 5 0 -2.7570464814384406 15.480242819177144 -19.780092232780603 0 -1 0
361 0 5 0 -4.790718863934085 15.442250000933736 -21.719054924472363 0 -1 0
107 0 5 0 -2.7463804379672854 15.453817986616993 -23.662245363440043 0 -1 0
103 0 5 0 -6.784813100999287 15.544941222005578 -23.702151438663602 0 -1 0
105 0 5 0 -4.796527964665775 15.524247548304558 -25.67770059791738 0 -1 0
109 0 5 0 -0.6937894378412283 15.529324434656067 -25.534533603806803 0 -1 0
362 0 5 0 -2.6852263612444576 -14.812829774527971 -21.676476288858506 0 0 0
368 0 5 0 -0.7555996672550217 -14.821065744897206 -19.713155267521497 0 0 0
364 0 5 0 -4.72967534259996 -14.807172138890834 -19.74300277678735 0 0 0
358 0 5 0 -6.70655998451618 -14.783521358198758 -21.687717394200444 0 0 0
108 0 5 0 -4.657956963806657 -14.802051028764064 -23.59190234677634 0 0 0
112 0 5 0 -0.8181405347001801 -14.762433156561624 -23.66315709799292 0 0 0
106 0 5 0 -2.734264483272351 -14.835873747403532 -25.638722581955818 0 0 0
102 0 5 0 -6.740897927896652 -14.799800770608691 -25.678342276203466 0 0 0
391 0 5 0 -6.712298409003512 -12.740286745573947 -19.73247877019795 0 0 0
397 0 5 0 -0.7336527695188343 -12.751824115415742 -21.652247322634064 0 0 0
395 0 5 0 -2.741781821604779 -12.730211165116959 -19.71726566443606 0 0 0
393 0 5 0 -4.65873252033389 -12.682346277462283 -21.753563034126206 0 0 0
139 0 5 0 -2.7338712224393538 -12.793010091302854 -23.696721477670952 0 0 0
135 0 5 0 -6.730093337383784 -12.759087695909765 -23.6380712236866 0 0 0
137 0 5 0 -4.685951675296871 -12.778095370671009 -25.69889777679436 0 0 0
141 0 5 0 -0.6820015544049252 -12.813233722425545 -25.684182226485476 0 0 0
400 0 5 0 -0.7234248349485899 -10.751667950019932 -19.754484417603287 0 0 0
396 0 5 0 -4.708138201119237 -10.727523492473836 -19.69643223131212 0 0 0
394 0 5 0 -2.72253640831441 -10.72456445148356 -21.78949378916708 0 0 0
140 0 5 0 -4.737689253335996 -10.718784178029027 -23.67478927452789 0 0 0
144 0 5 0 -0.6518314645773624 -10.708082335898109 -23.669587077915082 0 0 0
390 0 5 0 -6.768314665493741 -10.775468159452458 -21.723845557459708 0 0 0
134 0 5 0 -6.755726748392973 -10.796016282103224 -25.668592541444326 0 0 0
138 0 5 0 -2.6545908771464517 -10.701597594339683 -25.660025505263107 0 0 0
582 0 5 0 -2.7714634298856162 -10.707083277864866 -17.785039667788347 0 0 0
565 0 5 0 -4.698512089861017 15.542162477060312 -17.766934173763747 0 -1 0
567 0 5 0 -0.7254461605835338 15.445376350956636 -17.70028259255863 0 -1 0
564 0 5 0 -6.81565103648771 -14.854195422958107 -17.717091252711633 0 0 0
566 0 5 0 -2.688194684309052 -14.83017836018898 -17.715740066705166 0 0 0
581 0 5 0 -4.781179395886003 -12.823094370228791 -17.709644605816337 0 0 0
583 0 5 0 -0.7391253328161189 -12.777183434712175 -17.755481870660642 0 0 0
580 0 5 0 -6.745256577932904 -10.712982141957102 -17.72279333853498 0 0 0
367 0 5 0 1.2486927541697008 15.432078102568703 -19.756651981311684 0 -1 0
369 0 5 0 3.304186427838318 15.458289812439725 -21.71340197088242 0 -1 0
371 0 5 0 5.341506476638592 15.513854925339032 -19.74116963336129 0 -1 0
373 0 5 0 7.364034082881977 15.524977407425808 -21.721829558356802 0 -1 0
115 0 5 0 5.3490767719066765 15.517644739657966 -23.695970088982488 0 -1 0
111 0 5 0 1.3162036785381694 15.494849320723763 -23.664308199256453 0 -1 0
113 0 5 0 3.30775024998347 15.512362272177786 -25.63438905500684 0 -1 0
117 0 5 0 7.233906798313039 15.422532269893253 -25.64012145832614 0 -1 0
372 0 5 0 3.3084046563074176 -14.775302304231122 -19.71971250449697 0 0 0
376 0 5 0 7.401687497255177 -14.776865105520624 -19.74616177899744 0 0 0
370 0 5 0 5.319767809588754 -14.77443558666018 -21.61811332265293 0 0 0
366 0 5 0 1.2784922792512452 -14.797286776067677 -21.73372708196136 0 0 0
116 0 5 0 3.3406175746383378 -14.783089196313433 -23.63512200313455 0 0 0
120 0 5 0 7.343373887548046 -14.778014155312565 -23.680784204978508 0 0 0
114 0 5 0 5.357455471339339 -14.778932074763967 -25.65604008435151 0 0 0
110 0 5 0 1.3172959597431306 -14.795789247394612 -25.57734826146451 0 0 0
399 0 5 0 1.3347407014171235 -12.776771138992673 -19.71474530888662 0 0 0
401 0 5 0 3.2754383300654557 -12.780467391346804 -21.743570201308795 0 0 0
403 0 5 0 5.322299385673551 -12.727274698631184 -19.72834711672493 0 0 0
405 0 5 0 7.378012607355449 -12.818744956305434 -21.698727692336767 0 0 0
147 0 5 0 5.349520231035241 -12.734887887570762 -23.63711484415417 0 0 0
143 0 5 0 1.2242528415288987 -12.788581590779325 -23.644176983286876 0 0 0
149 0 5 0 7.357437926573979 -12.822030687471864 -25.64490969786997 0 0 0
145 0 5 0 3.289273760063159 -12.675513503789778 -25.654743537970532 0 0 0
404 0 5 0 3.3201410405825222 -10.713238749335325 -19.75838440921952 0 0 0
402 0 5 0 5.400000488807974 -10.687827344125795 -21.640746607335323 0 0 0
408 0 5 0 7.451472048177337 -10.734681052446739 -19.790086115408336 0 0 0
398 0 5 0 1.3578794756044668 -10.77811418993876 -21.63651500274796 0 0 0
152 0 5 0 7.471210072550978 -10.71563458791307 -23.74689436874105 0 0 0
148 0 5 0 3.3639006660680253 -10.757141295634863 -23.6045048674464 0 0 0
142 0 5 0 1.3710370473968219 -10.7891463876111 -25.69763536466842 0 0 0
146 0 5 0 5.40235575617579 -10.775363736702033 -25.571934900488145 0 0 0
569 0 5 0 3.302398832157711 15.456185453710031 -17.77114842696112 0 -1 0
571 0 5 0 7.359037097322597 15.581316792821715 -17.62862007101131 0 -1 0
568 0 5 0 1.2050877142950391 -14.877843002196311 -17.669294730351314 0 0 0
570 0 5 0 5.330714225115423 -14.785557501990699 -17.794623794483485 0 0 0
585 0 5 0 3.3152354761208866 -12.699640900719034 -17.759581310448198 0 0 0
587 0 5 0 7.34618428331152 -12.839958824672099 -17.738242876889 0 0 0
586 0 5 0 5.373715708676213 -10.729831162064665 -17.801014581182432 0 0 0
584 0 5 0 1.2963078572009927 -10.64701866081307 -17.8808712305246 0 0 0
377 0 5 0 11.374500315167401 15.488296528628208 -21.716932609414627 0 -1 0
375 0 5 0 9.375184657379227 15.48319359005219 -19.74314821982376 0 -1 0
379 0 5 0 13.529493971817145 15.474037414547423 -19.797211565186092 0 -1 0
381 0 5 0 15.49682381032685 15.469776671386192 -21.774094251348796 0 -1 0
119 0 5 0 9.348529785373508 15.44486824890348 -23.673994450630342 0 -1 0
123 0 5 0 13.468528736061852 15.52819003665686 -23.699740947460793 0 -1 0
121 0 5 0 11.386338398963623 15.46941577905258 -25.70547862476734 0 -1 0
125 0 5 0 15.466814863546027 15.413174775113621 -25.769480873515686 0 -1 0
374 0 5 0 9.344816726183778 -14.837008458747947 -21.684594369843897 0 0 0
380 0 5 0 11.461205100928687 -14.859293661727458 -19.768475443368114 0 0 0
384 0 5 0 15.491397771449487 -14.740821198739669 -19.795807344481297 0 0 0
378 0 5 0 13.5048416785097 -14.865918016726239 -21.732931021341674 0 0 0
128 0 5 0 15.463972292801257 -14.836848898824467 -23.679290100014107 0 0 0
124 0 5 0 11.346612405981864 -14.854502385820528 -23.684258708386448 0 0 0
122 0 5 0 13.359637758935841 -14.844534834577765 -25.701341936071135 0 0 0
118 0 5 0 9.39716515928205 -14.790600102704316 -25.677355930129426 0 0 0
407 0 5 0 9.364665888155102 -12.781360513718095 -19.73426754866872 0 0 0
409 0 5 0 11.394013987535498 -12.818242684395484 -21.659509238210667 0 0 0
411 0 5 0 13.435443730640356 -12.730321916901548 -19.736887303416623 0 0 0
413 0 5 0 15.454070931476094 -12.68487966573891 -21.72115238478495 0 0 0
155 0 5 0 13.452940238555984 -12.786611399413747 -23.72393640354974 0 0 0
151 0 5 0 9.38239327147342 -12.835476641473388 -23.679138278662254 0 0 0
157 0 5 0 15.509034828400738 -12.809752718511223 -25.719603813938868 0 0 0
153 0 5 0 11.356300423500656 -12.853221591076672 -25.73652579270471 0 0 0
589 0 5 0 11.401569588540594 -12.822642314195676 -17.777897920383698 0 0 0
406 0 5 0 9.468012774056266 -10.754454367998424 -21.71802204536969 0 0 0
416 0 5 0 15.400467190734505 -10.74874919777232 -19.752454425041243 0 0 0
412 0 5 0 11.467512904534868 -10.742579537723055 -19.692387285285427 0 0 0
410 0 5 0 13.346303078762269 -10.759931770934745 -21.769582445401387 0 0 0
160 0 5 0 15.41032674461332 -10.792543034516875 -23.711155504476356 0 0 0
156 0 5 0 11.383249988611574 -10.729973521967155 -23.721126481403815 0 0 0
154 0 5 0 13.41763730998916 -10.841823074398285 -25.82380248122772 0 0 0
150 0 5 0 9.417673030145313 -10.762108702597027 -25.786648279011523 0 0 0
574 0 5 0 13.528959641868687 -14.8252034071634 -17.82151485802907 0 0 0
572 0 5 0 9.43208327988513 -14.812884799724168 -17.731444562533532 0 0 0
591 0 5 0 15.488779814906595 -12.73953558659091 -17.626358910445585 0 0 0
590 0 5 0 13.465546804365149 -10.824815914469076 -17.670051853685024 0 0 0
588 0 5 0 9.406866170488707 -10.730658084040524 -17.807557307549974 0 0 0
573 0 5 0 11.455992348562937 15.466507929376919 -17.814830414817983 0 -1 0
575 0 5 0 15.413991045781575 15.4918629008874 -17.8566982042 0 -1 0
419 0 5 0 -10.821852831249275 -8.687236605585516 -19.762224368232758 0 0 0
421 0 5 0 -8.762088872285426 -8.627788557793016 -21.651940330243136 0 0 0
417 0 5 0 -12.804182193401505 -8.72815817803762 -21.718307695718494 0 0 0
447 0 5 0 -14.897373143476496 -8.71820270357553 -19.761167066751387 1 0 0
191 0 5 0 -14.846876618102984 -8.758074646445907 -23.7092889381692 1 0 0
163 0 5 0 -10.685723473264272 -8.733031113966767 -23.693207471407877 0 0 0
161 0 5 0 -12.900857191428726 -8.781661837377206 -25.841834063051248 0 0 0
165 0 5 0 -8.754782107677187 -8.737855824159238 -25.680154812349656 0 0 0
420 0 5 0 -12.715094669508241 -6.664562044677061 -19.848290557576064 0 0 0
424 0 5 0 -8.771825768596862 -6.661601181119203 -19.73942603686768 0 0 0
446 0 5 0 -14.82431869832733 -6.787763939800072 -21.808043681663538 1 0 0
418 0 5 0 -10.76691564189203 -6.684741993179857 -21.78618429614842 0 0 0
164 0 5 0 -12.822122581160624 -6.7647945239665495 -23.75898140361498 0 0 0
168 0 5 0 -8.755003760511553 -6.655738807139249 -23.73357745860355 0 0 0
162 0 5 0 -10.794249257496695 -6.773385981745212 -25.736764285208732 0 0 0
190 0 5 0 -14.784656683457804 -6.804523356715864 -25.700916433978257 1 0 0
449 0 5 0 -12.793240989511443 -4.61737940111168 -21.776815238285813 0 0 0
479 0 5 0 -14.792899877417415 -4.67391701412176 -19.88764194557235 1 0 0
451 0 5 0 -10.746899783291136 -4.617308370442336 -19.800108235882902 0 0 0
453 0 5 0 -8.806653183541867 -4.633473437444099 -21.72958269086194 0 0 0
223 0 5 0 -14.85314514873034 -4.758652276840816 -23.72965407395572 1 0 0
195 0 5 0 -10.781953301430981 -4.687716792321688 -23.66497536000128 0 0 0
197 0 5 0 -8.750335065433013 -4.727027295335882 -25.723629012801258 0 0 0
193 0 5 0 -12.825842847410025 -4.623009857334817 -25.617263382484605 0 0 0
594 0 5 0 -10.77400976236533 -6.681632131472472 -17.75706245908039 0 0 0
450 0 5 0 -10.709038385796404 -2.6311772962562543 -21.79132184466391 0 0 0
456 0 5 0 -8.702913959116792 -2.700481854696155 -19.73111170377884 0 0 0
452 0 5 0 -12.808887506577355 -2.6302127601019434 -19.806515781600044 0 0 0
478 0 5 0 -14.865028086812988 -2.627922757958898 -21.81710131584712 1 0 0
200 0 5 0 -8.71036557995613 -2.666569578330595 -23.723962647540898 0 0 0
196 0 5 0 -12.817223633381667 -2.6355020084676917 -23.741719192950082 0 0 0
194 0 5 0 -10.761081469038976 -2.632405983197 -25.637741382110157 0 0 0
222 0 5 0 -14.894222202583718 -2.707070659177582 -25.723190456346064 1 0 0
593 0 5 0 -12.805956019434209 -8.587250514672933 -17.70584641907791 0 0 0
595 0 5 0 -8.744285670140581 -8.65786449943568 -17.781132581042527 0 0 0
624 0 5 0 -14.796619420713848 -2.6772357872248627 -17.85093988280447 1 0 0
608 0 5 0 -14.88119960481086 -6.6683691124402245 -17.84462726713296 1 0 0
611 0 5 0 -8.850979965949017 -4.647526710124153 -17.65745132727533 0 0 0
609 0 5 0 -12.715775641516267 -4.662849398029946 -17.836273987010912 0 0 0
610 0 5 0 -10.731435025999788 -2.58742022739947 -17.77999198858833 0 0 0
423 0 5 0 -6.72769164523972 -8.74462961779392 -19.805661237243118 0 0 0
427 0 5 0 -2.7303957695213197 -8.660822930154263 -19.70426571770969 0 0 0
425 0 5 0 -4.713375441351175 -8.723007055508333 -21.74981454719618 0 0 0
429 0 5 0 -0.7356641754348383 -8.745351479332967 -21.73551339054352 0 0 0
171 0 5 0 -2.687085455831675 -8.652666707963407 -23.706761375125847 0 0 0
167 0 5 0 -6.780613045623727 -8.740979874958104 -23.68908705430253 0 0 0
169 0 5 0 -4.699827486094808 -8.81847151027796 -25.75625517124561 0 0 0
173 0 5 0 -0.6557529735696765 -8.66809913577646 -25.691112457875217 0 0 0
422 0 5 0 -6.75842253417144 -6.740966020415159 -21.695292698364213 0 0 0
428 0 5 0 -4.7599594825745974 -6.7304043226343815 -19.79396457395217 0 0 0
432 0 5 0 -0.7608752739395885 -6.709862895580884 -19.720248546338283 0 0 0
426 0 5 0 -2.718421008732901 -6.739255469712293 -21.702778527433356 0 0 0
176 0 5 0 -0.5769413682055035 -6.7143649269423955 -23.705970934258193 0 0 0
172 0 5 0 -4.773521547220138 -6.699991277059815 -23.692007116743316 0 0 0
166 0 5 0 -6.687325483413991 -6.764567013872089 -25.696851176975315 0 0 0
170 0 5 0 -2.7899751679403897 -6.703500056267535 -25.721858515860546 0 0 0
455 0 5 0 -6.797387184018527 -4.704423352239525 -19.798264693043805 0 0 0
459 0 5 0 -2.68605145234203 -4.715846450915763 -19.782669077169285 0 0 0
461 0 5 0 -0.6353278623726967 -4.685342895572729 -21.73131036417682 0 0 0
457 0 5 0 -4.768561322473296 -4.742136336719575 -21.740693733797155 0 0 0
203 0 5 0 -2.647287972036962 -4.676765875735802 -23.67444534189937 0 0 0
199 0 5 0 -6.716162465151217 -4.706861651091907 -23.725028763089824 0 0 0
205 0 5 0 -0.6497013081958617 -4.745391949614634 -25.715702382638803 0 0 0
201 0 5 0 -4.746228564075101 -4.689338799742295 -25.700327029558967 0 0 0
615 0 5 0 -0.6900804868541819 -4.753884073611232 -17.75028449402401 0 0 0
460 0 5 0 -4.661664524287052 -2.6506470608969654 -19.771715033133255 0 0 0
454 0 5 0 -6.6797680886523665 -2.735448768433997 -21.712389799243354 0 0 0
458 0 5 0 -2.7066792129885884 -2.650559731265307 -21.754445715525588 0 0 0
204 0 5 0 -4.8026616699076135 -2.6841618640894165 -23.772986426678653 0 0 0
208 0 5 0 -0.5866942608655218 -2.7118124843911424 -23.744930886465202 0 0 0
464 0 5 0 -0.683932793589141 -2.70007657841556 -19.743179414108926 0 0 0
202 0 5 0 -2.719522340434919 -2.749672567086912 -25.70209528791421 0 0 0
198 0 5 0 -6.74709187838168 -2.7058138469677275 -25.818799677895772 0 0 0
598 0 5 0 -2.781430303829133 -6.693778970352262 -17.763703036858104 0 0 0
599 0 5 0 -0.6804416251754047 -8.752362057034302 -17.836805759347598 0 0 0
613 0 5 0 -4.771291106691517 -4.730009406500762 -17.76022242154161 0 0 0
614 0 5 0 -2.6872448303555743 -2.6349388897657464 -17.777123033180246 0 0 0
597 0 5 0 -4.785936264994405 -8.714283668891403 -17.721901121700533 0 0 0
596 0 5 0 -6.785662321948916 -6.666664512221418 -17.82762813603537 0 0 0
612 0 5 0 -6.759833961306583 -2.642056264641459 -17.737698706892363 0 0 0
431 0 5 0 1.3636709450673261 -8.620367543626745 -19.82008559577878 0 0 0
435 0 5 0 5.388688836022503 -8.629288613798662 -19.70472084814244 0 0 0
437 0 5 0 7.431681115899298 -8.723097747561729 -21.75852143140049 0 0 0
433 0 5 0 3.3231047299243093 -8.69793525900533 -21.721792788088635 0 0 0
175 0 5 0 1.359654324940573 -8.735228346023383 -23.695978701541815 0 0 0
179 0 5 0 5.401641752555716 -8.77063508185445 -23.68349504090155 0 0 0
177 0 5 0 3.401619554610527 -8.806721370529418 -25.739441705357237 0 0 0
181 0 5 0 7.411753276729134 -8.765196866246807 -25.74667161654008 0 0 0
430 0 5 0 1.3328860134726415 -6.675613186039041 -21.735869742909394 0 0 0
436 0 5 0 3.422802674642005 -6.689835391192044 -19.849431298051606 0 0 0
440 0 5 0 7.4552716457396615 -6.6903881530965466 -19.757522741605293 0 0 0
434 0 5 0 5.428099622529907 -6.715888002178229 -21.79539055405623 0 0 0
184 0 5 0 7.486396352463915 -6.706564197717907 -23.720606336438976 0 0 0
180 0 5 0 3.3957936511921774 -6.722200447873615 -23.718139016568866 0 0 0
178 0 5 0 5.3669750272551076 -6.792794980253794 -25.75956612369846 0 0 0
174 0 5 0 1.4013159753837285 -6.7021030044324315 -25.63913881517031 0 0 0
463 0 5 0 1.3538003905819205 -4.699687756630253 -19.744891942505088 0 0 0
467 0 5 0 5.458844119485309 -4.65604264057331 -19.804040099780796 0 0 0
469 0 5 0 7.415908827039849 -4.736483263967306 -21.77401886514114 0 0 0
465 0 5 0 3.3453739072949475 -4.690880932524131 -21.713837087491193 0 0 0
207 0 5 0 1.408194519252634 -4.672293593504216 -23.73136666348339 0 0 0
211 0 5 0 5.256131599791799 -4.661421872045734 -23.70149396486095 0 0 0
209 0 5 0 3.4585292723358387 -4.692523783165595 -25.850688930526424 0 0 0
213 0 5 0 7.365193211907769 -4.646322531216333 -25.761139936642827 0 0 0
468 0 5 0 3.3135711400707053 -2.658489769625521 -19.813085980042686 0 0 0
466 0 5 0 5.404725410390192 -2.593395647810141 -21.81643293129566 0 0 0
212 0 5 0 3.3644654552883213 -2.5869403306155188 -23.715140094496693 0 0 0
216 0 5 0 7.389608845028406 -2.6864424519500765 -23.697404616155236 0 0 0
462 0 5 0 1.3313240812922003 -2.7121434377109077 -21.7567617082514 0 0 0
472 0 5 0 7.3894606480322365 -2.675988161028413 -19.85692993592825 0 0 0
206 0 5 0 1.428482886675588 -2.640068215589785 -25.836338507115602 0 0 0
210 0 5 0 5.4058346492488445 -2.6023928330613666 -25.65542467099548 0 0 0
601 0 5 0 3.337269721183739 -8.655941535080737 -17.81742140822268 0 0 0
603 0 5 0 7.403688549876138 -8.779141992808064 -17.787489991959802 0 0 0
600 0 5 0 1.4422121266997021 -6.731200646471166 -17.757583342778595 0 0 0
602 0 5 0 5.423336146852782 -6.618375614224474 -17.696631649875734 0 0 0
617 0 5 0 3.4381556874314905 -4.622586426606513 -17.796378155850718 0 0 0
618 0 5 0 5.3917381598210765 -2.55717855899567 -17.810261892511807 0 0 0
439 0 5 0 9.462181656968314 -8.740379490835107 -19.744089039537357 0 0 0
443 0 5 0 13.414899726196008 -8.751836803330782 -19.798410029821415 0 0 0
445 0 5 0 15.41063206102361 -8.837214669584295 -21.71883154328298 0 0 0
441 0 5 0 11.463177975248659 -8.73909865991599 -21.781113913482876 0 0 0
187 0 5 0 13.510865345871082 -8.699873330869991 -23.768818108647896 0 0 0
183 0 5 0 9.450071411022721 -8.729565710277774 -23.719145582827917 0 0 0
185 0 5 0 11.436232249239323 -8.75417059102044 -25.736882805874856 0 0 0
189 0 5 0 15.481795916338179 -8.789281178381858 -25.75985081258161 0 0 0
438 0 5 0 9.482013875987036 -6.72987995448269 -21.795808051289626 0 0 0
444 0 5 0 11.449476384052298 -6.708514638181347 -19.814128213472443 0 0 0
448 0 5 0 15.476877400393818 -6.701372860510727 -19.836260458089377 0 0 0
442 0 5 0 13.438251610444674 -6.651644627419321 -21.783885905438645 0 0 0
192 0 5 0 15.530501838125536 -6.69141693500283 -23.759860714929285 0 0 0
188 0 5 0 11.449393346742998 -6.710867796863294 -23.766906239677233 0 0 0
186 0 5 0 13.498260643911946 -6.779748438516711 -25.81902145078249 0 0 0
182 0 5 0 9.365973612299742 -6.779009870415081 -25.786225364936985 0 0 0
471 0 5 0 9.43884753172269 -4.711946489140929 -19.822556352266183 0 0 0
475 0 5 0 13.433400280935532 -4.6119350986893295 -19.899880404236345 0 0 0
477 0 5 0 15.448659448354126 -4.713223402028157 -21.810473432566507 0 0 0
473 0 5 0 11.47699530294045 -4.71343373328825 -21.82376600137164 0 0 0
219 0 5 0 13.449369143374195 -4.723469470804626 -23.818797025272154 0 0 0
215 0 5 0 9.5211344945785 -4.692328523477056 -23.768797722050156 0 0 0
221 0 5 0 15.480450260758538 -4.701846318452988 -25.73589845529657 0 0 0
217 0 5 0 11.460147224233463 -4.645339630968809 -25.783914074236034 0 0 0
470 0 5 0 9.426726281301484 -2.703413750659628 -21.77237710404885 0 0 0
476 0 5 0 11.350167498698635 -2.675679117329261 -19.84287346585338 0 0 0
480 0 5 0 15.510034099718613 -2.697966928535794 -19.82345144125949 0 0 0
224 0 5 0 15.404566322213904 -2.69202520884506 -23.796596265022153 0 0 0
474 0 5 0 13.397721571829225 -2.6619964208740585 -21.823069854617003 0 0 0
220 0 5 0 11.421551338434847 -2.676150078661672 -23.763703871742894 0 0 0
218 0 5 0 13.44704199037982 -2.6403652595117135 -25.74498838424273 0 0 0
214 0 5 0 9.399487807537371 -2.6897619119773677 -25.757444563001492 0 0 0
606 0 5 0 13.426738942905159 -6.677437173207236 -17.84488992379085 0 0 0
605 0 5 0 11.526421614266496 -8.76152812215538 -17.79778526955435 0 0 0
607 0 5 0 15.345164368502292 -8.79961475954106 -17.734770071750063 0 0 0
621 0 5 0 11.348361022795057 -4.606054857520906 -17.816327629765222 0 0 0
604 0 5 0 9.47461685260025 -6.813710246499166 -17.63861282291982 0 0 0
620 0 5 0 9.34328820019744 -2.63195941415232 -17.820084352480947 0 0 0
622 0 5 0 13.427518507163251 -2.7002231856748646 -17.802621073122687 0 0 0
623 0 5 0 15.448975851258355 -4.6521498077101215 -17.85656671069549 0 0 0
511 0 5 0 -14.823268569307878 -0.6524998385129938 -19.810211538165742 1 0 0
483 0 5 0 -10.768503154265867 -0.6280999044873353 -19.77889110117023 0 0 0
481 0 5 0 -12.80326905343208 -0.6893357477803048 -21.790691715358662 0 0 0
485 0 5 0 -8.657664604159262 -0.6437713411817457 -21.74451393563229 0 0 0
227 0 5 0 -10.773440377653735 -0.6308679838157868 -23.69774680084458 0 0 0
255 0 5 0 -14.805254662213157 -0.6379646238132243 -23.792324646813196 1 0 0
229 0 5 0 -8.771260002211543 -0.6471394019929075 -25.65823203761007 0 0 0
225 0 5 0 -12.804678375284178 -0.647694192981537 -25.76346466477157 0 0 0
482 0 5 0 -10.785220654974536 1.4435991435663693 -21.716611531727697 0 0 0
484 0 5 0 -12.816907237963747 1.4112918366285423 -19.809548485728165 0 0 0
488 0 5 0 -8.761278517524794 1.4006089770456822 -19.74107758532556 0 0 0
510 0 5 0 -14.848806131431475 1.3670761545240868 -21.775516412176845 1 0 0
232 0 5 0 -8.711975530795737 1.3552380936960216 -23.7331010553409 0 0 0
228 0 5 0 -12.787565039364916 1.414991656879027 -23.687503510311142 0 0 0
226 0 5 0 -10.786176099072783 1.394444793518272 -25.768388826240084 0 0 0
254 0 5 0 -14.826656686457378 1.3349089567621883 -25.772231295924495 1 0 0
259 0 5 0 -10.801371641840127 3.3823355337343983 -19.777159628201773 0 -1 0
287 0 5 0 -14.861879031595812 3.4042743363914454 -19.720096062963204 1 -1 0
257 0 5 0 -12.829836167291903 3.4473196682248486 -21.742490379364284 0 -1 0
261 0 5 0 -8.700469215655668 3.3673252118413424 -21.73834445223352 0 -1 0
31 0 5 0 -14.758396000282382 3.431153634110921 -23.684719304083536 1 -1 0
3 0 5 0 -10.69430059121614 3.406575597980999 -23.707247228036778 0 -1 0
5 0 5 0 -8.700371736261191 3.3356248647595006 -25.770207475819387 0 -1 0
1 0 5 0 -12.773030762268148 3.4293430138582797 -25.74136105911496 0 -1 0
264 0 5 0 -8.746564949781607 5.33811935710089 -19.77387510540227 0 -1 0
260 0 5 0 -12.760774416216602 5.395518403322078 -19.72991650516726 0 -1 0
258 0 5 0 -10.757565689203606 5.435384469250858 -21.788382791428816 0 -1 0
286 0 5 0 -14.777484267673229 5.439932337884376 -21.75489427632992 1 -1 0
8 0 5 0 -8.741149911014382 5.39420196266064 -23.79005029282012 0 -1 0
4 0 5 0 -12.720571151360584 5.446823121743642 -23.754008952771752 0 -1 0
2 0 5 0 -10.718620665776504 5.364882634756355 -25.733190539750073 0 -1 0
30 0 5 0 -14.769181107223371 5.34358003442138 -25.751100501417405 1 -1 0
626 0 5 0 -10.820367445587866 1.3862665422002136 -17.803827023876906 0 0 0
627 0 5 0 -8.726807894786843 -0.6746272265370642 -17.73092686750588 0 0 0
625 0 5 0 -12.78096473027194 -0.6407981811357619 -17.875873867108872 0 0 0
528 0 5 0 -14.838531815466062 5.356151573301671 -17.711266472217517 1 -1 0
640 0 5 0 -14.81017310358933 1.318817504693585 -17.80196463664902 1 0 0
513 0 5 0 -12.786153703638876 3.342831658893323 -17.607363977130838 0 -1 0
515 0 5 0 -8.701469383970624 3.2987880412997304 -17.68791384320529 0 -1 0
514 0 5 0 -10.84283052477497 5.278962724389846 -17.75866084412735 0 -1 0
491 0 5 0 -2.635759421707336 -0.6650168851555461 -19.8046589825609 0 0 0
487 0 5 0 -6.682523606967009 -0.6303818650178268 -19.715345319244847 0 0 0
493 0 5 0 -0.680045412334759 -0.6693816137832366 -21.776730958224334 0 0 0
489 0 5 0 -4.64372934205703 -0.6715476446648413 -21.763655741441234 0 0 0
231 0 5 0 -6.762963210528784 -0.6989572250367164 -23.70846496526063 0 0 0
235 0 5 0 -2.6606925884736508 -0.6922821951509041 -23.741628825020825 0 0 0
233 0 5 0 -4.702984985700234 -0.7943172134836735 -25.80089858179013 0 0 0
237 0 5 0 -0.735283767399978 -0.6853116113750934 -25.86013539223586 0 0 0
486 0 5 0 -6.720182698938633 1.2968095642392565 -21.757929883833867 0 0 0
496 0 5 0 -0.7707693803002779 1.440995155980178 -19.844749794268843 0 0 0
492 0 5 0 -4.650643910880993 1.325706580050034 -19.81504087377055 0 0 0
490 0 5 0 -2.6992951722744634 1.406862970680686 -21.785958371511786 0 0 0
236 0 5 0 -4.773906565125789 1.3335322659815236 -23.764566168424533 0 0 0
240 0 5 0 -0.6835319825231352 1.339463079083021 -23.73870629952597 0 0 0
230 0 5 0 -6.710446143192316 1.2659352581489212 -25.710101962455266 0 0 0
234 0 5 0 -2.739617664514562 1.311384669870275 -25.8351646193891 0 0 0
263 0 5 0 -6.785496384063278 3.343973004323888 -19.789783959094496 0 -1 0
267 0 5 0 -2.766300968837114 3.384979156943493 -19.74248735584828 0 -1 0
265 0 5 0 -4.723317699428227 3.367865256333926 -21.77900339716652 0 -1 0
269 0 5 0 -0.7178267527194355 3.415729576462588 -21.769276764066205 0 -1 0
11 0 5 0 -2.7107672394327147 3.3482674886103214 -23.819203195416176 0 -1 0
7 0 5 0 -6.767429781479474 3.373975241767263 -23.7908006957945 0 -1 0
13 0 5 0 -0.6167569441476445 3.3768856589157825 -25.720348493867448 0 -1 0
9 0 5 0 -4.751844332327331 3.2819180464478794 -25.82100085717425 0 -1 0
272 0 5 0 -0.7203256443742098 5.4414809040213425 -19.809957637797062 0 -1 0
268 0 5 0 -4.7935436503913795 5.420152132392349 -19.80113598792751 0 -1 0
262 0 5 0 -6.795766042844153 5.353647905775661 -21.741853191631627 0 -1 0
266 0 5 0 -2.7620612201157035 5.350548263440162 -21.74222554393382 0 -1 0
16 0 5 0 -0.73301851096442 5.386587870259102 -23.742236385140266 0 -1 0
12 0 5 0 -4.751921475018686 5.348289371366386 -23.7635948565078 0 -1 0
10 0 5 0 -2.774657588069887 5.35511066239846 -25.816200699466528 0 -1 0
6 0 5 0 -6.678394823220674 5.437716233555503 -25.862207319577085 0 -1 0
630 0 5 0 -2.7450689436825755 1.305399844683915 -17.754860958241373 0 0 0
629 0 5 0 -4.732491245738823 -0.6830516948076447 -17.713962115503264 0 0 0
631 0 5 0 -0.6213504562455283 -0.6681667325597715 -17.74738464271031 0 0 0
628 0 5 0 -6.722819469608759 1.3312399459787074 -17.793893869486602 0 0 0
519 0 5 0 -0.7414130915540051 3.40397334967548 -17.762309116036672 0 -1 0
518 0 5 0 -2.8098739944453803 5.353992212471141 -17.76372219111538 0 -1 0
517 0 5 0 -4.754911734899772 3.3034430639752244 -17.77358512671446 0 -1 0
516 0 5 0 -6.781283077293594 5.386429718979375 -17.739263898340337 0 -1 0
495 0 5 0 1.3331914994966396 -0.6488010062049292 -19.757045885600142 0 0 0