# LAMMPS data file 

490 atoms
80 bonds
130 angles
120 dihedrals

7 atom types
5 bond types
6 angle types
3 dihedral types

-14.2 14.2 xlo xhi
-14.2 14.2 ylo yhi
-25.68 25.68 zlo zhi

Atoms

1 1 1 1.0 -12.78 -12.78 21.419999999999995 
2 1 2 -1.0 -12.78 -9.94 21.419999999999995 
3 1 2 -1.0 -9.94 -12.78 21.419999999999995 
4 1 1 1.0 -9.94 -9.94 21.419999999999995 
5 1 2 -1.0 -12.78 -12.78 24.259999999999994 
6 1 1 1.0 -12.78 -9.94 24.259999999999994 
7 1 1 1.0 -9.94 -12.78 24.259999999999994 
8 1 2 -1.0 -9.94 -9.94 24.259999999999994 
9 1 1 1.0 -12.78 -12.78 27.099999999999994 
10 1 2 -1.0 -12.78 -9.94 27.099999999999994 
11 1 2 -1.0 -9.94 -12.78 27.099999999999994 
12 1 1 1.0 -9.94 -9.94 27.099999999999994 
13 1 2 -1.0 -12.78 -12.78 29.939999999999994 
14 1 1 1.0 -12.78 -9.94 29.939999999999994 
15 1 1 1.0 -9.94 -12.78 29.939999999999994 
16 1 2 -1.0 -9.94 -9.94 29.939999999999994 
17 1 1 1.0 -12.78 -7.1 21.419999999999995 
18 1 2 -1.0 -12.78 -4.26 21.419999999999995 
19 1 2 -1.0 -9.94 -7.1 21.419999999999995 
20 1 1 1.0 -9.94 -4.26 21.419999999999995 
21 1 2 -1.0 -12.78 -7.1 24.259999999999994 
22 1 1 1.0 -12.78 -4.26 24.259999999999994 
23 1 1 1.0 -9.94 -7.1 24.259999999999994 
24 1 2 -1.0 -9.94 -4.26 24.259999999999994 
25 1 1 1.0 -12.78 -7.1 27.099999999999994 
26 1 2 -1.0 -12.78 -4.26 27.099999999999994 
27 1 2 -1.0 -9.94 -7.1 27.099999999999994 
28 1 1 1.0 -9.94 -4.26 27.099999999999994 
29 1 2 -1.0 -12.78 -7.1 29.939999999999994 
30 1 1 1.0 -12.78 -4.26 29.939999999999994 
31 1 1 1.0 -9.94 -7.1 29.939999999999994 
32 1 2 -1.0 -9.94 -4.26 29.939999999999994 
33 1 1 1.0 -12.78 -1.42 21.419999999999995 
34 1 2 -1.0 -12.78 1.42 21.419999999999995 
35 1 2 -1.0 -9.94 -1.42 21.419999999999995 
36 1 1 1.0 -9.94 1.42 21.419999999999995 
37 1 2 -1.0 -12.78 -1.42 24.259999999999994 
38 1 1 1.0 -12.78 1.42 24.259999999999994 
39 1 1 1.0 -9.94 -1.42 24.259999999999994 
40 1 2 -1.0 -9.94 1.42 24.259999999999994 
41 1 1 1.0 -12.78 -1.42 27.099999999999994 
42 1 2 -1.0 -12.78 1.42 27.099999999999994 
43 1 2 -1.0 -9.94 -1.42 27.099999999999994 
44 1 1 1.0 -9.94 1.42 27.099999999999994 
45 1 2 -1.0 -12.78 -1.42 29.939999999999994 
46 1 1 1.0 -12.78 1.42 29.939999999999994 
47 1 1 1.0 -9.94 -1.42 29.939999999999994 
48 1 2 -1.0 -9.94 1.42 29.939999999999994 
49 1 1 1.0 -12.78 4.26 21.419999999999995 
50 1 2 -1.0 -12.78 7.1 21.419999999999995 
51 1 2 -1.0 -9.94 4.26 21.419999999999995 
52 1 1 1.0 -9.94 7.1 21.419999999999995 
53 1 2 -1.0 -12.78 4.26 24.259999999999994 
54 1 1 1.0 -12.78 7.1 24.259999999999994 
55 1 1 1.0 -9.94 4.26 24.259999999999994 
56 1 2 -1.0 -9.94 7.1 24.259999999999994 
57 1 1 1.0 -12.78 4.26 27.099999999999994 
58 1 2 -1.0 -12.78 7.1 27.099999999999994 
59 1 2 -1.0 -9.94 4.26 27.099999999999994 
60 1 1 1.0 -9.94 7.1 27.099999999999994 
61 1 2 -1.0 -12.78 4.26 29.939999999999994 
62 1 1 1.0 -12.78 7.1 29.939999999999994 
63 1 1 1.0 -9.94 4.26 29.939999999999994 
64 1 2 -1.0 -9.94 7.1 29.939999999999994 
65 1 1 1.0 -12.78 9.94 21.419999999999995 
66 1 2 -1.0 -12.78 12.78 21.419999999999995 
67 1 2 -1.0 -9.94 9.94 21.419999999999995 
68 1 1 1.0 -9.94 12.78 21.419999999999995 
69 1 2 -1.0 -12.78 9.94 24.259999999999994 
70 1 1 1.0 -12.78 12.78 24.259999999999994 
71 1 1 1.0 -9.94 9.94 24.259999999999994 
72 1 2 -1.0 -9.94 12.78 24.259999999999994 
73 1 1 1.0 -12.78 9.94 27.099999999999994 
74 1 2 -1.0 -12.78 12.78 27.099999999999994 
75 1 2 -1.0 -9.94 9.94 27.099999999999994 
76 1 1 1.0 -9.94 12.78 27.099999999999994 
77 1 2 -1.0 -12.78 9.94 29.939999999999994 
78 1 1 1.0 -12.78 12.78 29.939999999999994 
79 1 1 1.0 -9.94 9.94 29.939999999999994 
80 1 2 -1.0 -9.94 12.78 29.939999999999994 
81 1 1 1.0 -7.1 -12.78 21.419999999999995 
82 1 2 -1.0 -7.1 -9.94 21.419999999999995 
83 1 2 -1.0 -4.26 -12.78 21.419999999999995 
84 1 1 1.0 -4.26 -9.94 21.419999999999995 
85 1 2 -1.0 -7.1 -12.78 24.259999999999994 
86 1 1 1.0 -7.1 -9.94 24.259999999999994 
87 1 1 1.0 -4.26 -12.78 24.259999999999994 
88 1 2 -1.0 -4.26 -9.94 24.259999999999994 
89 1 1 1.0 -7.1 -12.78 27.099999999999994 
90 1 2 -1.0 -7.1 -9.94 27.099999999999994 
91 1 2 -1.0 -4.26 -12.78 27.099999999999994 
92 1 1 1.0 -4.26 -9.94 27.099999999999994 
93 1 2 -1.0 -7.1 -12.78 29.939999999999994 
94 1 1 1.0 -7.1 -9.94 29.939999999999994 
95 1 1 1.0 -4.26 -12.78 29.939999999999994 
96 1 2 -1.0 -4.26 -9.94 29.939999999999994 
97 1 1 1.0 -7.1 -7.1 21.419999999999995 
98 1 2 -1.0 -7.1 -4.26 21.419999999999995 
99 1 2 -1.0 -4.26 -7.1 21.419999999999995 
100 1 1 1.0 -4.26 -4.26 21.419999999999995 
101 1 2 -1.0 -7.1 -7.1 24.259999999999994 
102 1 1 1.0 -7.1 -4.26 24.259999999999994 
103 1 1 1.0 -4.26 -7.1 24.259999999999994 
104 1 2 -1.0 -4.26 -4.26 24.259999999999994 
105 1 1 1.0 -7.1 -7.1 27.099999999999994 
106 1 2 -1.0 -7.1 -4.26 27.099999999999994 
107 1 2 -1.0 -4.26 -7.1 27.099999999999994 
108 1 1 1.0 -4.26 -4.26 27.099999999999994 
109 1 2 -1.0 -7.1 -7.1 29.939999999999994 
110 1 1 1.0 -7.1 -4.26 29.939999999999994 
111 1 1 1.0 -4.26 -7.1 29.939999999999994 
112 1 2 -1.0 -4.26 -4.26 29.939999999999994 
113 1 1 1.0 -7.1 -1.42 21.419999999999995 
114 1 2 -1.0 -7.1 1.42 21.419999999999995 
115 1 2 -1.0 -4.26 -1.42 21.419999999999995 
116 1 1 1.0 -4.26 1.42 21.419999999999995 
117 1 2 -1.0 -7.1 -1.42 24.259999999999994 
118 1 1 1.0 -7.1 1.42 24.259999999999994 
119 1 1 1.0 -4.26 -1.42 24.259999999999994 
120 1 2 -1.0 -4.26 1.42 24.259999999999994 
121 1 1 1.0 -7.1 -1.42 27.099999999999994 
122 1 2 -1.0 -7.1 1.42 27.099999999999994 
123 1 2 -1.0 -4.26 -1.42 27.099999999999994 
124 1 1 1.0 -4.26 1.42 27.099999999999994 
125 1 2 -1.0 -7.1 -1.42 29.939999999999994 
126 1 1 1.0 -7.1 1.42 29.939999999999994 
127 1 1 1.0 -4.26 -1.42 29.939999999999994 
128 1 2 -1.0 -4.26 1.42 29.939999999999994 
129 1 1 1.0 -7.1 4.26 21.419999999999995 
130 1 2 -1.0 -7.1 7.1 21.419999999999995 
131 1 2 -1.0 -4.26 4.26 21.419999999999995 
132 1 1 1.0 -4.26 7.1 21.419999999999995 
133 1 2 -1.0 -7.1 4.26 24.259999999999994 
134 1 1 1.0 -7.1 7.1 24.259999999999994 
135 1 1 1.0 -4.26 4.26 24.259999999999994 
136 1 2 -1.0 -4.26 7.1 24.259999999999994 
137 1 1 1.0 -7.1 4.26 27.099999999999994 
138 1 2 -1.0 -7.1 7.1 27.099999999999994 
139 1 2 -1.0 -4.26 4.26 27.099999999999994 
140 1 1 1.0 -4.26 7.1 27.099999999999994 
141 1 2 -1.0 -7.1 4.26 29.939999999999994 
142 1 1 1.0 -7.1 7.1 29.939999999999994 
143 1 1 1.0 -4.26 4.26 29.939999999999994 
144 1 2 -1.0 -4.26 7.1 29.939999999999994 
145 1 1 1.0 -7.1 9.94 21.419999999999995 
146 1 2 -1.0 -7.1 12.78 21.419999999999995 
147 1 2 -1.0 -4.26 9.94 21.419999999999995 
148 1 1 1.0 -4.26 12.78 21.419999999999995 
149 1 2 -1.0 -7.1 9.94 24.259999999999994 
150 1 1 1.0 -7.1 12.78 24.259999999999994 
151 1 1 1.0 -4.26 9.94 24.259999999999994 
152 1 2 -1.0 -4.26 12.78 24.259999999999994 
153 1 1 1.0 -7.1 9.94 27.099999999999994 
154 1 2 -1.0 -7.1 12.78 27.099999999999994 
155 1 2 -1.0 -4.26 9.94 27.099999999999994 
156 1 1 1.0 -4.26 12.78 27.099999999999994 
157 1 2 -1.0 -7.1 9.94 29.939999999999994 
158 1 1 1.0 -7.1 12.78 29.939999999999994 
159 1 1 1.0 -4.26 9.94 29.939999999999994 
160 1 2 -1.0 -4.26 12.78 29.939999999999994 
161 1 1 1.0 -1.42 -12.78 21.419999999999995 
162 1 2 -1.0 -1.42 -9.94 21.419999999999995 
163 1 2 -1.0 1.42 -12.78 21.419999999999995 
164 1 1 1.0 1.42 -9.94 21.419999999999995 
165 1 2 -1.0 -1.42 -12.78 24.259999999999994 
166 1 1 1.0 -1.42 -9.94 24.259999999999994 
167 1 1 1.0 1.42 -12.78 24.259999999999994 
168 1 2 -1.0 1.42 -9.94 24.259999999999994 
169 1 1 1.0 -1.42 -12.78 27.099999999999994 
170 1 2 -1.0 -1.42 -9.94 27.099999999999994 
171 1 2 -1.0 1.42 -12.78 27.099999999999994 
172 1 1 1.0 1.42 -9.94 27.099999999999994 
173 1 2 -1.0 -1.42 -12.78 29.939999999999994 
174 1 1 1.0 -1.42 -9.94 29.939999999999994 
175 1 1 1.0 1.42 -12.78 29.939999999999994 
176 1 2 -1.0 1.42 -9.94 29.939999999999994 
177 1 1 1.0 -1.42 -7.1 21.419999999999995 
178 1 2 -1.0 -1.42 -4.26 21.419999999999995 
179 1 2 -1.0 1.42 -7.1 21.419999999999995 
180 1 1 1.0 1.42 -4.26 21.419999999999995 
181 1 2 -1.0 -1.42 -7.1 24.259999999999994 
182 1 1 1.0 -1.42 -4.26 24.259999999999994 
183 1 1 1.0 1.42 -7.1 24.259999999999994 
184 1 2 -1.0 1.42 -4.26 24.259999999999994 
185 1 1 1.0 -1.42 -7.1 27.099999999999994 
186 1 2 -1.0 -1.42 -4.26 27.099999999999994 
187 1 2 -1.0 1.42 -7.1 27.099999999999994 
188 1 1 1.0 1.42 -4.26 27.099999999999994 
189 1 2 -1.0 -1.42 -7.1 29.939999999999994 
190 1 1 1.0 -1.42 -4.26 29.939999999999994 
191 1 1 1.0 1.42 -7.1 29.939999999999994 
192 1 2 -1.0 1.42 -4.26 29.939999999999994 
193 1 1 1.0 -1.42 -1.42 21.419999999999995 
194 1 2 -1.0 -1.42 1.42 21.419999999999995 
195 1 2 -1.0 1.42 -1.42 21.419999999999995 
196 1 1 1.0 1.42 1.42 21.419999999999995 
197 1 2 -1.0 -1.42 -1.42 24.259999999999994 
198 1 1 1.0 -1.42 1.42 24.259999999999994 
199 1 1 1.0 1.42 -1.42 24.259999999999994 
200 1 2 -1.0 1.42 1.42 24.259999999999994 
201 1 1 1.0 -1.42 -1.42 27.099999999999994 
202 1 2 -1.0 -1.42 1.42 27.099999999999994 
203 1 2 -1.0 1.42 -1.42 27.099999999999994 
204 1 1 1.0 1.42 1.42 27.099999999999994 
205 1 2 -1.0 -1.42 -1.42 29.939999999999994 
206 1 1 1.0 -1.42 1.42 29.939999999999994 
207 1 1 1.0 1.42 -1.42 29.939999999999994 
208 1 2 -1.0 1.42 1.42 29.939999999999994 
209 1 1 1.0 -1.42 4.26 21.419999999999995 
210 1 2 -1.0 -1.42 7.1 21.419999999999995 
211 1 2 -1.0 1.42 4.26 21.419999999999995 
212 1 1 1.0 1.42 7.1 21.419999999999995 
213 1 2 -1.0 -1.42 4.26 24.259999999999994 
214 1 1 1.0 -1.42 7.1 24.259999999999994 
215 1 1 1.0 1.42 4.26 24.259999999999994 
216 1 2 -1.0 1.42 7.1 24.259999999999994 
217 1 1 1.0 -1.42 4.26 27.099999999999994 
218 1 2 -1.0 -1.42 7.1 27.099999999999994 
219 1 2 -1.0 1.42 4.26 27.099999999999994 
220 1 1 1.0 1.42 7.1 27.099999999999994 
221 1 2 -1.0 -1.42 4.26 29.939999999999994 
222 1 1 1.0 -1.42 7.1 29.939999999999994 
223 1 1 1.0 1.42 4.26 29.939999999999994 
224 1 2 -1.0 1.42 7.1 29.939999999999994 
225 1 1 1.0 -1.42 9.94 21.419999999999995 
226 1 2 -1.0 -1.42 12.78 21.419999999999995 
227 1 2 -1.0 1.42 9.94 21.419999999999995 
228 1 1 1.0 1.42 12.78 21.419999999999995 
229 1 2 -1.0 -1.42 9.94 24.259999999999994 
230 1 1 1.0 -1.42 12.78 24.259999999999994 
231 1 1 1.0 1.42 9.94 24.259999999999994 
232 1 2 -1.0 1.42 12.78 24.259999999999994 
233 1 1 1.0 -1.42 9.94 27.099999999999994 
234 1 2 -1.0 -1.42 12.78 27.099999999999994 
235 1 2 -1.0 1.42 9.94 27.099999999999994 
236 1 1 1.0 1.42 12.78 27.099999999999994 
237 1 2 -1.0 -1.42 9.94 29.939999999999994 
238 1 1 1.0 -1.42 12.78 29.939999999999994 
239 1 1 1.0 1.42 9.94 29.939999999999994 
240 1 2 -1.0 1.42 12.78 29.939999999999994 
241 1 1 1.0 4.26 -12.78 21.419999999999995 
242 1 2 -1.0 4.26 -9.94 21.419999999999995 
243 1 2 -1.0 7.1 -12.78 21.419999999999995 
244 1 1 1.0 7.1 -9.94 21.419999999999995 
245 1 2 -1.0 4.26 -12.78 24.259999999999994 
246 1 1 1.0 4.26 -9.94 24.259999999999994 
247 1 1 1.0 7.1 -12.78 24.259999999999994 
248 1 2 -1.0 7.1 -9.94 24.259999999999994 
249 1 1 1.0 4.26 -12.78 27.099999999999994 
250 1 2 -1.0 4.26 -9.94 27.099999999999994 
251 1 2 -1.0 7.1 -12.78 27.099999999999994 
252 1 1 1.0 7.1 -9.94 27.099999999999994 
253 1 2 -1.0 4.26 -12.78 29.939999999999994 
254 1 1 1.0 4.26 -9.94 29.939999999999994 
255 1 1 1.0 7.1 -12.78 29.939999999999994 
256 1 2 -1.0 7.1 -9.94 29.939999999999994 
257 1 1 1.0 4.26 -7.1 21.419999999999995 
258 1 2 -1.0 4.26 -4.26 21.419999999999995 
259 1 2 -1.0 7.1 -7.1 21.419999999999995 
260 1 1 1.0 7.1 -4.26 21.419999999999995 
261 1 2 -1.0 4.26 -7.1 24.259999999999994 
262 1 1 1.0 4.26 -4.26 24.259999999999994 
263 1 1 1.0 7.1 -7.1 24.259999999999994 
264 1 2 -1.0 7.1 -4.26 24.259999999999994 
265 1 1 1.0 4.26 -7.1 27.099999999999994 
266 1 2 -1.0 4.26 -4.26 27.099999999999994 
267 1 2 -1.0 7.1 -7.1 27.099999999999994 
268 1 1 1.0 7.1 -4.26 27.099999999999994 
269 1 2 -1.0 4.26 -7.1 29.939999999999994 
270 1 1 1.0 4.26 -4.26 29.939999999999994 
271 1 1 1.0 7.1 -7.1 29.939999999999994 
272 1 2 -1.0 7.1 -4.26 29.939999999999994 
273 1 1 1.0 4.26 -1.42 21.419999999999995 
274 1 2 -1.0 4.26 1.42 21.419999999999995 
275 1 2 -1.0 7.1 -1.42 21.419999999999995 
276 1 1 1.0 7.1 1.42 21.419999999999995 
277 1 2 -1.0 4.26 -1.42 24.259999999999994 
278 1 1 1.0 4.26 1.42 24.259999999999994 
279 1 1 1.0 7.1 -1.42 24.259999999999994 
280 1 2 -1.0 7.1 1.42 24.259999999999994 
281 1 1 1.0 4.26 -1.42 27.099999999999994 
282 1 2 -1.0 4.26 1.42 27.099999999999994 
283 1 2 -1.0 7.1 -1.42 27.099999999999994 
284 1 1 1.0 7.1 1.42 27.099999999999994 
285 1 2 -1.0 4.26 -1.42 29.939999999999994 
286 1 1 1.0 4.26 1.42 29.939999999999994 
287 1 1 1.0 7.1 -1.42 29.939999999999994 
288 1 2 -1.0 7.1 1.42 29.939999999999994 
289 1 1 1.0 4.26 4.26 21.419999999999995 
290 1 2 -1.0 4.26 7.1 21.419999999999995 
291 1 2 -1.0 7.1 4.26 21.419999999999995 
292 1 1 1.0 7.1 7.1 21.419999999999995 
293 1 2 -1.0 4.26 4.26 24.259999999999994 
294 1 1 1.0 4.26 7.1 24.259999999999994 
295 1 1 1.0 7.1 4.26 24.259999999999994 
296 1 2 -1.0 7.1 7.1 24.259999999999994 
297 1 1 1.0 4.26 4.26 27.099999999999994 
298 1 2 -1.0 4.26 7.1 27.099999999999994 
299 1 2 -1.0 7.1 4.26 27.099999999999994 
300 1 1 1.0 7.1 7.1 27.099999999999994 
301 1 2 -1.0 4.26 4.26 29.939999999999994 
302 1 1 1.0 4.26 7.1 29.939999999999994 
303 1 1 1.0 7.1 4.26 29.939999999999994 
304 1 2 -1.0 7.1 7.1 29.939999999999994 
305 1 1 1.0 4.26 9.94 21.419999999999995 
306 1 2 -1.0 4.26 12.78 21.419999999999995 
307 1 2 -1.0 7.1 9.94 21.419999999999995 
308 1 1 1.0 7.1 12.78 21.419999999999995 
309 1 2 -1.0 4.26 9.94 24.259999999999994 
310 1 1 1.0 4.26 12.78 24.259999999999994 
311 1 1 1.0 7.1 9.94 24.259999999999994 
312 1 2 -1.0 7.1 12.78 24.259999999999994 
313 1 1 1.0 4.26 9.94 27.099999999999994 
314 1 2 -1.0 4.26 12.78 27.099999999999994 
315 1 2 -1.0 7.1 9.94 27.099999999999994 
316 1 1 1.0 7.1 12.78 27.099999999999994 
317 1 2 -1.0 4.26 9.94 29.939999999999994 
318 1 1 1.0 4.26 12.78 29.939999999999994 
319 1 1 1.0 7.1 9.94 29.939999999999994 
320 1 2 -1.0 7.1 12.78 29.939999999999994 
321 1 1 1.0 9.94 -12.78 21.419999999999995 
322 1 2 -1.0 9.94 -9.94 21.419999999999995 
323 1 2 -1.0 12.78 -12.78 21.419999999999995 
324 1 1 1.0 12.78 -9.94 21.419999999999995 
325 1 2 -1.0 9.94 -12.78 24.259999999999994 
326 1 1 1.0 9.94 -9.94 24.259999999999994 
327 1 1 1.0 12.78 -12.78 24.259999999999994 
328 1 2 -1.0 12.78 -9.94 24.259999999999994 
329 1 1 1.0 9.94 -12.78 27.099999999999994 
330 1 2 -1.0 9.94 -9.94 27.099999999999994 
331 1 2 -1.0 12.78 -12.78 27.099999999999994 
332 1 1 1.0 12.78 -9.94 27.099999999999994 
333 1 2 -1.0 9.94 -12.78 29.939999999999994 
334 1 1 1.0 9.94 -9.94 29.939999999999994 
335 1 1 1.0 12.78 -12.78 29.939999999999994 
336 1 2 -1.0 12.78 -9.94 29.939999999999994 
337 1 1 1.0 9.94 -7.1 21.419999999999995 
338 1 2 -1.0 9.94 -4.26 21.419999999999995 
339 1 2 -1.0 12.78 -7.1 21.419999999999995 
340 1 1 1.0 12.78 -4.26 21.419999999999995 
341 1 2 -1.0 9.94 -7.1 24.259999999999994 
342 1 1 1.0 9.94 -4.26 24.259999999999994 
343 1 1 1.0 12.78 -7.1 24.259999999999994 
344 1 2 -1.0 12.78 -4.26 24.259999999999994 
345 1 1 1.0 9.94 -7.1 27.099999999999994 
346 1 2 -1.0 9.94 -4.26 27.099999999999994 
347 1 2 -1.0 12.78 -7.1 27.099999999999994 
348 1 1 1.0 12.78 -4.26 27.099999999999994 
349 1 2 -1.0 9.94 -7.1 29.939999999999994 
350 1 1 1.0 9.94 -4.26 29.939999999999994 
351 1 1 1.0 12.78 -7.1 29.939999999999994 
352 1 2 -1.0 12.78 -4.26 29.939999999999994 
353 1 1 1.0 9.94 -1.42 21.419999999999995 
354 1 2 -1.0 9.94 1.42 21.419999999999995 
355 1 2 -1.0 12.78 -1.42 21.419999999999995 
356 1 1 1.0 12.78 1.42 21.419999999999995 
357 1 2 -1.0 9.94 -1.42 24.259999999999994 
358 1 1 1.0 9.94 1.42 24.259999999999994 
359 1 1 1.0 12.78 -1.42 24.259999999999994 
360 1 2 -1.0 12.78 1.42 24.259999999999994 
361 1 1 1.0 9.94 -1.42 27.099999999999994 
362 1 2 -1.0 9.94 1.42 27.099999999999994 
363 1 2 -1.0 12.78 -1.42 27.099999999999994 
364 1 1 1.0 12.78 1.42 27.099999999999994 
365 1 2 -1.0 9.94 -1.42 29.939999999999994 
366 1 1 1.0 9.94 1.42 29.939999999999994 
367 1 1 1.0 12.78 -1.42 29.939999999999994 
368 1 2 -1.0 12.78 1.42 29.939999999999994 
369 1 1 1.0 9.94 4.26 21.419999999999995 
370 1 2 -1.0 9.94 7.1 21.419999999999995 
371 1 2 -1.0 12.78 4.26 21.419999999999995 
372 1 1 1.0 12.78 7.1 21.419999999999995 
373 1 2 -1.0 9.94 4.26 24.259999999999994 
374 1 1 1.0 9.94 7.1 24.259999999999994 
375 1 1 1.0 12.78 4.26 24.259999999999994 
376 1 2 -1.0 12.78 7.1 24.259999999999994 
377 1 1 1.0 9.94 4.26 27.099999999999994 
378 1 2 -1.0 9.94 7.1 27.099999999999994 
379 1 2 -1.0 12.78 4.26 27.099999999999994 
380 1 1 1.0 12.78 7.1 27.099999999999994 
381 1 2 -1.0 9.94 4.26 29.939999999999994 
382 1 1 1.0 9.94 7.1 29.939999999999994 
383 1 1 1.0 12.78 4.26 29.939999999999994 
384 1 2 -1.0 12.78 7.1 29.939999999999994 
385 1 1 1.0 9.94 9.94 21.419999999999995 
386 1 2 -1.0 9.94 12.78 21.419999999999995 
387 1 2 -1.0 12.78 9.94 21.419999999999995 
388 1 1 1.0 12.78 12.78 21.419999999999995 
389 1 2 -1.0 9.94 9.94 24.259999999999994 
390 1 1 1.0 9.94 12.78 24.259999999999994 
391 1 1 1.0 12.78 9.94 24.259999999999994 
392 1 2 -1.0 12.78 12.78 24.259999999999994 
393 1 1 1.0 9.94 9.94 27.099999999999994 
394 1 2 -1.0 9.94 12.78 27.099999999999994 
395 1 2 -1.0 12.78 9.94 27.099999999999994 
396 1 1 1.0 12.78 12.78 27.099999999999994 
397 1 2 -1.0 9.94 9.94 29.939999999999994 
398 1 1 1.0 9.94 12.78 29.939999999999994 
399 1 1 1.0 12.78 9.94 29.939999999999994 
400 1 2 -1.0 12.78 12.78 29.939999999999994 
401 2 5 0.416 5.263154798761114 9.998738088997763 4.3929351098970475 
402 2 7 -0.682 5.897475683846226 10.574931687848066 3.9371176611651073 
403 2 6 0.372 6.723459676524404 9.739446791863807 3.119504848058915 
404 2 4 -0.029 6.114633819440192 9.20032100662246 2.3767608614951223 
405 2 4 -0.029 7.239356729085046 8.982711498838222 3.7308086899533888 
406 2 3 -0.285 7.740617850349057 10.621989475966382 2.4144479666135097 
407 2 4 0.079 8.382324010908079 10.019093515106597 1.7622350422919035 
408 2 4 0.079 8.375004569568494 11.13915941121638 3.143127338124912 
409 2 4 0.079 7.235404410035342 11.376222754017459 1.8005057004823704 
410 3 5 0.416 -13.4566790951764 5.962088178216823 -7.328446829543486 
411 3 7 -0.682 -13.459943464880908 6.897564357019405 -7.587300568096881 
412 3 6 0.372 -12.912959422244175 6.978003310199007 -8.907570734254543 
413 3 4 -0.029 -13.52367670492718 6.3967902164571795 -9.616238432430801 
414 3 4 -0.029 -11.894581512093083 6.560045658209061 -8.934184507485078 
415 3 3 -0.285 -12.887462828529175 8.440142054168064 -9.322417408350312 
416 3 4 0.079 -12.490693312069508 8.541880381591575 -10.33872213544451 
417 3 4 0.079 -12.255668901926924 9.023869509622378 -8.643459699820477 
418 3 4 0.079 -13.89816833126038 8.863343510925247 -9.302206572568663 
419 4 5 0.416 12.43161417902355 9.434585054801039 -16.249067280675884 
420 4 7 -0.682 12.296855885513981 10.369862936700148 -16.027195513340732 
421 4 6 0.372 12.555369644970412 11.131880944198196 -17.210949910229818 
422 4 4 -0.029 11.864689345342857 10.840727525731543 -18.017909993979117 
423 4 4 -0.029 13.578666349853473 10.951546535670671 -17.57541364579581 
424 4 3 -0.285 12.372507757419825 12.603568429038345 -16.877340823181648 
425 4 4 0.079 12.544454918292235 13.220854133678806 -17.766185335729837 
426 4 4 0.079 13.077498924530717 12.913977594990941 -16.09790610371954 
427 4 4 0.079 11.354951671954659 12.79269919980031 -16.517003857801576 
428 5 5 0.416 -8.470409103665029 11.286999061095873 -5.439721692823884 
429 5 7 -0.682 -8.854716937800669 11.39251884291496 -4.554676688631135 
430 5 6 0.372 -10.055500398758086 12.158213525488106 -4.698224634294476 
431 5 4 -0.029 -10.772053904201156 11.636539088899491 -5.351983781221153 
432 5 4 -0.029 -9.842647217961755 13.134919418168685 -5.159992522192864 
433 5 3 -0.285 -10.66075693292432 12.354953869314398 -3.3178061068633955 
434 5 4 0.079 -11.594976436285283 12.923259950992836 -3.3879071185527994 
435 5 4 0.079 -9.969773947745713 12.902528899836842 -2.6669689705099535 
436 5 4 0.079 -10.879228983653961 11.387235103838028 -2.8521625542070708 
437 6 5 0.416 -6.067748210960284 4.930193261050822 -3.7159281308119816 
438 6 7 -0.682 -5.753338998782576 4.349196336133047 -3.0047874866960647 
439 6 6 0.372 -6.708173628099587 4.420117305069382 -1.9408155290975526 
440 6 4 -0.029 -7.697731674080185 4.080295777041257 -2.2847491983810215 
441 6 4 -0.029 -6.8228914063968125 5.456833686701071 -1.587899908778379 
442 6 3 -0.285 -6.220855870164089 3.533953533094697 -0.8059883537289327 
443 6 4 0.079 -6.9368591797012105 3.547225395670833 0.02335786659658967 
444 6 4 0.079 -5.251166525512547 3.8819820683675474 -0.43254010909543794 
445 6 4 0.079 -6.107340627517965 2.498914098981775 -1.1478088090175576 
446 7 5 0.416 3.0559383740913106 -6.123219543276043 -16.91800924424489 
447 7 7 -0.682 3.6720532135004067 -6.865415323054459 -16.809937396297652 
448 7 6 0.372 3.144992288951347 -7.712999298012388 -15.783982491371594 
449 7 4 -0.029 2.1524640529406134 -8.095738581011117 -16.069276213900043 
450 7 4 -0.029 3.0222739587674226 -7.155743379541092 -14.842230659713273 
451 7 3 -0.285 4.109321175913344 -8.87068516572717 -15.582908436906804 
452 7 4 0.079 3.7303504032877153 -9.554417028413493 -14.815090796958614 
453 7 4 0.079 5.092539249156306 -8.50457794296749 -15.266471081643028 
454 7 4 0.079 4.234545703942214 -9.433267364755464 -16.515031632118664 
455 8 5 0.416 -2.8493920006331583 -1.4339273435207587 -17.781302691975526 
456 8 7 -0.682 -2.1875724308199795 -2.141368574112396 -17.72085968203221 
457 8 6 0.372 -2.6052408170152113 -3.030056373476622 -16.67943642793805 
458 8 4 -0.029 -3.5899669445840434 -3.4647571383111693 -16.912554133997997 
459 8 4 -0.029 -2.703161133139546 -2.4923474803051917 -15.723522615107266 
460 8 3 -0.285 -1.5677181307716819 -4.13374750154676 -16.552905343756812 
461 8 4 0.079 -1.8621173890633502 -4.847282826296113 -15.77518530940979 
462 8 4 0.079 -0.5895105582821936 -3.7165634459372874 -16.2884203975232 
463 8 4 0.079 -1.466436002925699 -4.676751308705407 -17.4994370971205 
464 9 5 0.416 11.526252540327288 8.968525425856752 9.841788674571593 
465 9 7 -0.682 12.441024262227375 8.824752129969006 9.550835875339065 
466 9 6 0.372 13.001202200726556 7.80751960674483 10.387623752072239 
467 9 4 -0.029 12.43169771747511 6.869707733121901 10.291875648219202 
468 9 4 -0.029 12.961574779356608 8.107531418987858 11.446355559309767 
469 9 3 -0.285 14.443470709949098 7.584356691135181 9.962585628704002 
470 9 4 0.079 14.903084311962395 6.796683265069047 10.570021177125549 
471 9 4 0.079 15.029123309953595 8.502520436851407 10.084533347317608 
472 9 4 0.079 14.49191484376031 7.281730689166078 8.910395421105106 
473 10 5 0.416 13.424487462345372 2.29707175010595 -14.293287564982837 
474 10 7 -0.682 13.419767780803292 3.0184982160977816 -14.942635833597144 
475 10 6 0.372 14.471500511547212 2.7588679666373936 -15.878170801613257 
476 10 4 -0.029 14.305211127683773 1.798883646409333 -16.391758293549813 
477 10 4 -0.029 15.442947629670822 2.69080117055662 -15.36421762512064 
478 10 3 -0.285 14.495888105027806 3.891855033136901 -16.891256730024004 
479 10 4 0.079 15.278947570899865 3.7195385927274938 -17.63810139395713 
480 10 4 0.079 14.693583512655525 4.849266535013939 -16.396115720016546 
481 10 4 0.079 13.533428758888247 3.9644337236598095 -17.4103308141836 
482 11 5 0.416 -11.134761123395137 8.945378972390179 -13.693134533107818 
483 11 7 -0.682 -11.264184166357524 9.752372430868379 -14.216721038953288 
484 11 6 0.372 -10.373041273071012 9.684418742025075 -15.334764830426307 
485 11 4 -0.029 -10.596069601147672 8.802168393537345 -15.95515733006803 
486 11 4 -0.029 -9.329251451075304 9.591065662495405 -14.996713843581544 
487 11 3 -0.285 -10.543840918581708 10.952403886053927 -16.155519788699696 
488 11 4 0.079 -9.889108093812514 10.929859842441552 -17.033852714781794 
489 11 4 0.079 -10.292785926146525 11.83636430821357 -15.558468500497872 
490 11 4 0.079 -11.579720212004 11.051409188423108 -16.499301119922393 

Bonds

1 5 401 402 
2 2 402 403 
3 4 403 404 
4 4 403 405 
5 3 403 406 
6 1 406 407 
7 1 406 408 
8 1 406 409 
9 5 410 411 
10 2 411 412 
11 4 412 413 
12 4 412 414 
13 3 412 415 
14 1 415 416 
15 1 415 417 
16 1 415 418 
17 5 419 420 
18 2 420 421 
19 4 421 422 
20 4 421 423 
21 3 421 424 
22 1 424 425 
23 1 424 426 
24 1 424 427 
25 5 428 429 
26 2 429 430 
27 4 430 431 
28 4 430 432 
29 3 430 433 
30 1 433 434 
31 1 433 435 
32 1 433 436 
33 5 437 438 
34 2 438 439 
35 4 439 440 
36 4 439 441 
37 3 439 442 
38 1 442 443 
39 1 442 444 
40 1 442 445 
41 5 446 447 
42 2 447 448 
43 4 448 449 
44 4 448 450 
45 3 448 451 
46 1 451 452 
47 1 451 453 
48 1 451 454 
49 5 455 456 
50 2 456 457 
51 4 457 458 
52 4 457 459 
53 3 457 460 
54 1 460 461 
55 1 460 462 
56 1 460 463 
57 5 464 465 
58 2 465 466 
59 4 466 467 
60 4 466 468 
61 3 466 469 
62 1 469 470 
63 1 469 471 
64 1 469 472 
65 5 473 474 
66 2 474 475 
67 4 475 476 
68 4 475 477 
69 3 475 478 
70 1 478 479 
71 1 478 480 
72 1 478 481 
73 5 482 483 
74 2 483 484 
75 4 484 485 
76 4 484 486 
77 3 484 487 
78 1 487 488 
79 1 487 489 
80 1 487 490 

Angles

1 1 401 402 403 
2 3 402 403 404 
3 3 402 403 405 
4 2 402 403 406 
5 4 404 403 405 
6 6 404 403 406 
7 6 405 403 406 
8 6 403 406 407 
9 6 403 406 408 
10 6 403 406 409 
11 5 407 406 408 
12 5 407 406 409 
13 5 408 406 409 
14 1 410 411 412 
15 3 411 412 413 
16 3 411 412 414 
17 2 411 412 415 
18 4 413 412 414 
19 6 413 412 415 
20 6 414 412 415 
21 6 412 415 416 
22 6 412 415 417 
23 6 412 415 418 
24 5 416 415 417 
25 5 416 415 418 
26 5 417 415 418 
27 1 419 420 421 
28 3 420 421 422 
29 3 420 421 423 
30 2 420 421 424 
31 4 422 421 423 
32 6 422 421 424 
33 6 423 421 424 
34 6 421 424 425 
35 6 421 424 426 
36 6 421 424 427 
37 5 425 424 426 
38 5 425 424 427 
39 5 426 424 427 
40 1 428 429 430 
41 3 429 430 431 
42 3 429 430 432 
43 2 429 430 433 
44 4 431 430 432 
45 6 431 430 433 
46 6 432 430 433 
47 6 430 433 434 
48 6 430 433 435 
49 6 430 433 436 
50 5 434 433 435 
51 5 434 433 436 
52 5 435 433 436 
53 1 437 438 439 
54 3 438 439 440 
55 3 438 439 441 
56 2 438 439 442 
57 4 440 439 441 
58 6 440 439 442 
59 6 441 439 442 
60 6 439 442 443 
61 6 439 442 444 
62 6 439 442 445 
63 5 443 442 444 
64 5 443 442 445 
65 5 444 442 445 
66 1 446 447 448 
67 3 447 448 449 
68 3 447 448 450 
69 2 447 448 451 
70 4 449 448 450 
71 6 449 448 451 
72 6 450 448 451 
73 6 448 451 452 
74 6 448 451 453 
75 6 448 451 454 
76 5 452 451 453 
77 5 452 451 454 
78 5 453 451 454 
79 1 455 456 457 
80 3 456 457 458 
81 3 456 457 459 
82 2 456 457 460 
83 4 458 457 459 
84 6 458 457 460 
85 6 459 457 460 
86 6 457 460 461 
87 6 457 460 462 
88 6 457 460 463 
89 5 461 460 462 
90 5 461 460 463 
91 5 462 460 463 
92 1 464 465 466 
93 3 465 466 467 
94 3 465 466 468 
95 2 465 466 469 
96 4 467 466 468 
97 6 467 466 469 
98 6 468 466 469 
99 6 466 469 470 
100 6 466 469 471 
101 6 466 469 472 
102 5 470 469 471 
103 5 470 469 472 
104 5 471 469 472 
105 1 473 474 475 
106 3 474 475 476 
107 3 474 475 477 
108 2 474 475 478 
109 4 476 475 477 
110 6 476 475 478 
111 6 477 475 478 
112 6 475 478 479 
113 6 475 478 480 
114 6 475 478 481 
115 5 479 478 480 
116 5 479 478 481 
117 5 480 478 481 
118 1 482 483 484 
119 3 483 484 485 
120 3 483 484 486 
121 2 483 484 487 
122 4 485 484 486 
123 6 485 484 487 
124 6 486 484 487 
125 6 484 487 488 
126 6 484 487 489 
127 6 484 487 490 
128 5 488 487 489 
129 5 488 487 490 
130 5 489 487 490 

Dihedrals

1 3 401 402 403 404 
2 3 401 402 403 405 
3 1 401 402 403 406 
4 2 402 403 406 407 
5 3 402 403 406 408 
6 3 402 403 406 409 
7 3 404 403 406 407 
8 3 404 403 406 408 
9 3 404 403 406 409 
10 3 405 403 406 407 
11 3 405 403 406 408 
12 3 405 403 406 409 
13 3 410 411 412 413 
14 3 410 411 412 414 
15 1 410 411 412 415 
16 2 411 412 415 416 
17 3 411 412 415 417 
18 3 411 412 415 418 
19 3 413 412 415 416 
20 3 413 412 415 417 
21 3 413 412 415 418 
22 3 414 412 415 416 
23 3 414 412 415 417 
24 3 414 412 415 418 
25 3 419 420 421 422 
26 3 419 420 421 423 
27 1 419 420 421 424 
28 2 420 421 424 425 
29 3 420 421 424 426 
30 3 420 421 424 427 
31 3 422 421 424 425 
32 3 422 421 424 426 
33 3 422 421 424 427 
34 3 423 421 424 425 
35 3 423 421 424 426 
36 3 423 421 424 427 
37 3 428 429 430 431 
38 3 428 429 430 432 
39 1 428 429 430 433 
40 2 429 430 433 434 
41 3 429 430 433 435 
42 3 429 430 433 436 
43 3 431 430 433 434 
44 3 431 430 433 435 
45 3 431 430 433 436 
46 3 432 430 433 434 
47 3 432 430 433 435 
48 3 432 430 433 436 
49 3 437 438 439 440 
50 3 437 438 439 441 
51 1 437 438 439 442 
52 2 438 439 442 443 
53 3 438 439 442 444 
54 3 438 439 442 445 
55 3 440 439 442 443 
56 3 440 439 442 444 
57 3 440 439 442 445 
58 3 441 439 442 443 
59 3 441 439 442 444 
60 3 441 439 442 445 
61 3 446 447 448 449 
62 3 446 447 448 450 
63 1 446 447 448 451 
64 2 447 448 451 452 
65 3 447 448 451 453 
66 3 447 448 451 454 
67 3 449 448 451 452 
68 3 449 448 451 453 
69 3 449 448 451 454 
70 3 450 448 451 452 
71 3 450 448 451 453 
72 3 450 448 451 454 
73 3 455 456 457 458 
74 3 455 456 457 459 
75 1 455 456 457 460 
76 2 456 457 460 461 
77 3 456 457 460 462 
78 3 456 457 460 463 
79 3 458 457 460 461 
80 3 458 457 460 462 
81 3 458 457 460 463 
82 3 459 457 460 461 
83 3 459 457 460 462 
84 3 459 457 460 463 
85 3 464 465 466 467 
86 3 464 465 466 468 
87 1 464 465 466 469 
88 2 465 466 469 470 
89 3 465 466 469 471 
90 3 465 466 469 472 
91 3 467 466 469 470 
92 3 467 466 469 471 
93 3 467 466 469 472 
94 3 468 466 469 470 
95 3 468 466 469 471 
96 3 468 466 469 472 
97 3 473 474 475 476 
98 3 473 474 475 477 
99 1 473 474 475 478 
100 2 474 475 478 479 
101 3 474 475 478 480 
102 3 474 475 478 481 
103 3 476 475 478 479 
104 3 476 475 478 480 
105 3 476 475 478 481 
106 3 477 475 478 479 
107 3 477 475 478 480 
108 3 477 475 478 481 
109 3 482 483 484 485 
110 3 482 483 484 486 
111 1 482 483 484 487 
112 2 483 484 487 488 