LAMMPS data file via write_data, version 15 Sep 2022, timestep = 10000

4948 atoms
5 atom types
2432 bonds
1 bond types
1216 angles
1 angle types

-16.16 16.16 xlo xhi
-16.16 16.16 ylo yhi
-52.52 52.52 zlo zhi

Masses

1 15.9994
2 1.008
3 28.99
4 35.453
5 26.9815

Pair Coeffs # lj/cut/tip4p/long

1 0.185199 3.1589
2 0 0
3 0.0469 2.4299
4 0.15 4.0447
5 11.697 2.574

Bond Coeffs # harmonic

1 0 0.9572

Angle Coeffs # harmonic

1 0 104.52

Atoms # full

2 0 5 0 -14.14538025800419 -14.126381812804121 -48.25456018849275 0 0 0
5 0 5 0 -12.1212020361872 -16.14762698250606 -48.25407124856624 0 0 0
6 0 5 0 -10.099507527282901 -14.126798098533643 -48.248679352526054 0 0 0
8 0 5 0 -12.123856852524753 -14.127515036948235 -46.254564260222224 0 0 0
34 0 5 0 -14.146576675917775 -10.085940691995425 -48.24922699564578 0 0 0
35 0 5 0 -14.146865162752944 -12.106898321708723 -46.2539219793122 0 0 0
37 0 5 0 -12.122733676023492 -12.105830418489871 -48.250548460114594 0 0 0
38 0 5 0 -10.101462761601802 -10.087144383905327 -48.2444416959673 0 0 0
39 0 5 0 -10.103684362493315 -12.107816110323343 -46.24652026611842 0 0 0
40 0 5 0 -12.125744482241206 -10.088559365042402 -46.24716109755648 0 0 0
258 0 5 0 -14.146919482739913 -14.128493632280783 -44.301431384210716 0 0 0
262 0 5 0 -10.106430787351803 -14.12974152253975 -44.29076216862328 0 0 0
290 0 5 0 -14.14876098859698 -10.091309616833126 -44.28858952596267 0 0 0
293 0 5 0 -12.12792693230278 -12.109667325537556 -44.29088717897562 0 0 0
294 0 5 0 -10.107448095454526 -10.089865391178202 -44.28340297788185 0 0 0
3 0 5 0 -14.145765522517737 -16.149765494700375 -46.25922076159754 0 0 0
7 0 5 0 -10.101644221009996 -16.149574859788906 -46.25154314018283 0 0 0
261 0 5 0 -12.124994149234608 -16.150755052399695 -44.30104463387535 0 0 0
265 0 5 0 -8.085648048141696 -16.150917383949622 -44.28542739274822 0 0 0
44 0 5 0 -8.083345024024698 -10.089095308390586 -46.24009546526857 0 0 0
297 0 5 0 -8.085518784845743 -12.109807831841787 -44.28267855549421 0 0 0
12 0 5 0 -8.082080210363316 -14.128983465543444 -46.2438532595643 0 0 0
9 0 5 0 -8.078477705460429 -16.148457509539927 -48.24560630706208 0 0 0
41 0 5 0 -8.079807687783447 -12.10714175811266 -48.24265696690046 0 0 0
10 0 5 0 -6.0598263867664945 -14.128467256858803 -48.240654128408394 0 0 0
14 0 5 0 -2.0222496505041745 -14.12921394989631 -48.234464354784905 0 0 0
16 0 5 0 -4.043359283279321 -14.130622536771424 -46.23685687885438 0 0 0
42 0 5 0 -6.059757455251173 -10.088560081807069 -48.23731186255932 0 0 0
43 0 5 0 -6.062656255764246 -12.109780610696607 -46.23896093350742 0 0 0
45 0 5 0 -4.040455041536567 -12.108747248644734 -48.23627969045884 0 0 0
46 0 5 0 -2.020810318171613 -10.089856635636906 -48.23261927270388 0 0 0
47 0 5 0 -2.023302307928549 -12.11068942893271 -46.232807811471076 0 0 0
48 0 5 0 -4.042232920929511 -10.090878394003486 -46.23343550274826 0 0 0
266 0 5 0 -6.064077165985626 -14.13036352913982 -44.27928303855548 0 0 0
270 0 5 0 -2.0274955548270635 -14.131145695504138 -44.27220591966692 0 0 0
298 0 5 0 -6.0655578775217736 -10.092882323355285 -44.276535941453524 0 0 0
301 0 5 0 -4.045077724657333 -12.11308492227136 -44.27583203863658 0 0 0
302 0 5 0 -2.022821667134843 -10.092653000423446 -44.271903458460734 0 0 0
11 0 5 0 -6.062424444049098 -16.150153220968246 -46.239713140452004 0 0 0
269 0 5 0 -4.045552269038676 -16.150189318033203 -44.273718626526495 0 0 0
13 0 5 0 -4.041279077886539 -16.149430202750064 -48.23781055860973 0 0 0
15 0 5 0 -2.0254824709075114 -16.15033179289679 -46.23310303393196 0 0 0
273 0 5 0 -0.00817235112937992 -16.151008674667494 -44.27102073865056 0 0 0
305 0 5 0 -0.005700956388491552 -12.110591534605618 -44.26967620666436 0 0 0
52 0 5 0 -0.0027049555923713163 -10.090729783110604 -46.230202272570516 0 0 0
49 0 5 0 -0.0030791862818452314 -12.10940492683119 -48.23173139829661 0 0 0
20 0 5 0 -0.005421769493453663 -14.129863447353307 -46.23025879103643 0 0 0
17 0 5 0 -0.005778832465032574 -16.14891800072911 -48.23245137407008 0 0 0
18 0 5 0 2.012847334737741 -14.128735586981783 -48.23176186639166 0 0 0
22 0 5 0 6.0473682357322405 -14.12775309049503 -48.23797277760341 0 0 0
24 0 5 0 4.0326863630268095 -14.129398057482964 -46.23185369443403 0 0 0
50 0 5 0 2.015841001498434 -10.089678914965576 -48.23025261522606 0 0 0
51 0 5 0 2.0152577313063014 -12.110250719063337 -46.229074131685074 0 0 0
53 0 5 0 4.031623538650748 -12.108581920016597 -48.232416826285416 0 0 0
54 0 5 0 6.050336053466117 -10.088418604513429 -48.23430298727444 0 0 0
55 0 5 0 6.052880598047148 -12.108916125413277 -46.2340671167802 0 0 0
56 0 5 0 4.035714109195853 -10.089528318115548 -46.22992260631336 0 0 0
274 0 5 0 2.0145328063142287 -14.130549889476688 -44.26904610243408 0 0 0
278 0 5 0 6.056020932782365 -14.130639110924216 -44.27501607018295 0 0 0
306 0 5 0 2.017498588724489 -10.089772139339594 -44.27095912165424 0 0 0
309 0 5 0 4.0381198928687825 -12.109829038950616 -44.27063231703323 0 0 0
310 0 5 0 6.056311633243386 -10.090132461540554 -44.26900286079466 0 0 0
19 0 5 0 2.012077446639065 -16.149599494462976 -46.23095692732888 0 0 0
21 0 5 0 4.028219066171728 -16.148372159804936 -48.23536988927335 0 0 0
23 0 5 0 6.049130819828688 -16.149299043761424 -46.23857600381418 0 0 0
277 0 5 0 4.033491106047372 -16.150743930758026 -44.273136546381885 0 0 0
28 0 5 0 8.069215919029162 -14.128753543453536 -46.2418537062035 0 0 0
313 0 5 0 8.074007040008341 -12.110805124675679 -44.27573241766276 0 0 0
25 0 5 0 8.064428573798743 -16.14830307109904 -48.24442686074591 0 0 0
57 0 5 0 8.067061685573213 -12.107006309755615 -48.24011307130705 0 0 0
60 0 5 0 8.071182487738875 -10.088933250786958 -46.23473989776768 0 0 0
281 0 5 0 8.070628835265792 -16.1501889080466 -44.28297849173496 0 0 0
1 0 5 0 16.151563872765447 -16.147816565501973 -48.25776127176058 -1 0 0
4 0 5 0 16.151005862730813 -14.128067395159729 -46.257528079475804 -1 0 0
33 0 5 0 16.150425972390455 -12.105518828852688 -48.25227993466488 -1 0 0
36 0 5 0 16.1506350738914 -10.087642282042813 -46.24919298797324 -1 0 0
289 0 5 0 16.150947565719786 -12.10949021917043 -44.29589744692187 -1 0 0
257 0 5 0 16.151903272777112 -16.15127013148702 -44.304079296738955 -1 0 0
26 0 5 0 10.084992972084997 -14.12711045639046 -48.24671582237321 0 0 0
30 0 5 0 14.127526107764185 -14.126510178433431 -48.2540112240181 0 0 0
32 0 5 0 12.107885956161413 -14.12817755023984 -46.251592103913865 0 0 0
58 0 5 0 10.086374343165705 -10.087009969138641 -48.24135703498073 0 0 0
59 0 5 0 10.08889729599264 -12.107899648063446 -46.242936563611366 0 0 0
61 0 5 0 12.105839663482444 -12.106011500587437 -48.248146847975335 0 0 0
62 0 5 0 14.127806745374418 -10.086124952263235 -48.24753818856914 0 0 0
63 0 5 0 14.128780322860859 -12.107663727765079 -46.25160991269294 0 0 0
64 0 5 0 12.108737597684891 -10.088522496092038 -46.24361697812673 0 0 0
282 0 5 0 10.090673097136309 -14.130102448698391 -44.287284102073784 0 0 0
286 0 5 0 14.130551588824286 -14.130283993067678 -44.2975796024259 0 0 0
314 0 5 0 10.092994229295563 -10.090737879338205 -44.276563584746 0 0 0
317 0 5 0 12.111217924956884 -12.110445544115091 -44.28647567378256 0 0 0
318 0 5 0 14.130519583672594 -10.090829594105271 -44.286574533107526 0 0 0
29 0 5 0 12.105071514936704 -16.148220717855846 -48.25295346598001 0 0 0
27 0 5 0 10.086947025613599 -16.14977471977132 -46.24913212818721 0 0 0
31 0 5 0 14.129498288833396 -16.149528809987338 -46.258810557761805 0 0 0
285 0 5 0 12.110500658141198 -16.151555741219635 -44.29775486682997 0 0 0
66 0 5 0 -14.146409576002307 -6.050824804750245 -48.244287347140165 0 0 0
67 0 5 0 -14.147541458370283 -8.06955193483558 -46.24514527786445 0 0 0
69 0 5 0 -12.12410235841581 -8.068398797800118 -48.2444488930361 0 0 0
70 0 5 0 -10.101908879407382 -6.051821982537205 -48.24124867618313 0 0 0
71 0 5 0 -10.104278662285884 -8.07004201324884 -46.24175271257924 0 0 0
72 0 5 0 -12.125392897985774 -6.051120996974695 -46.24197491087099 0 0 0
98 0 5 0 -14.145809894407384 -2.0163622603967912 -48.2471598062205 0 0 0
99 0 5 0 -14.14635354063064 -4.0326497392673675 -46.24371294341148 0 0 0
101 0 5 0 -12.123732533319131 -4.034287184311068 -48.24360445457072 0 0 0
102 0 5 0 -10.101874157319811 -2.017402988271002 -48.24405789799977 0 0 0
103 0 5 0 -10.103512166533402 -4.033751871542175 -46.24036214553615 0 0 0
104 0 5 0 -12.124836056691185 -2.0150281145847275 -46.24430832036265 0 0 0
322 0 5 0 -14.147494699551531 -6.0512038994085 -44.28253942278399 0 0 0
325 0 5 0 -12.127444305536809 -8.071411560582067 -44.28429596329893 0 0 0
326 0 5 0 -10.105055661293651 -6.052003289878864 -44.279673983220405 0 0 0
354 0 5 0 -14.147567395558982 -2.0119004396881204 -44.28525360039068 0 0 0
357 0 5 0 -12.125915608083508 -4.031996965407225 -44.280712722493064 0 0 0
358 0 5 0 -10.104680793897131 -2.0141676772596866 -44.280777282755025 0 0 0
361 0 5 0 -8.083317572528445 -4.03365778393827 -44.27672278302932 0 0 0
329 0 5 0 -8.086947769271234 -8.071389963933994 -44.27722099522325 0 0 0
76 0 5 0 -8.082348750783265 -6.0524490544396805 -46.2375263299637 0 0 0
108 0 5 0 -8.082773284434225 -2.0168219236933025 -46.24099072408627 0 0 0
77 0 5 0 -4.039605662808891 -8.071247351881958 -48.233505704497894 0 0 0
73 0 5 0 -8.080224045521906 -8.069832585965266 -48.23935264383281 0 0 0
79 0 5 0 -2.021354189195122 -8.071714358183073 -46.23040068106214 0 0 0
105 0 5 0 -8.080297785507769 -4.0356694605816985 -48.240142671508 0 0 0
74 0 5 0 -6.059316694845893 -6.053667530021497 -48.23653632569311 0 0 0
75 0 5 0 -6.062210560222239 -8.0712866627001 -46.234102440274405 0 0 0
78 0 5 0 -2.019584799275223 -6.05346655609816 -48.23187304658282 0 0 0
80 0 5 0 -4.041211760300266 -6.053396026321328 -46.231997347295355 0 0 0
106 0 5 0 -6.059480086858492 -2.0175804867068785 -48.23942920278626 0 0 0
107 0 5 0 -6.0612960449120905 -4.035526455097081 -46.23657096588218 0 0 0
109 0 5 0 -4.038977323580713 -4.036190736009165 -48.23576304068097 0 0 0
110 0 5 0 -2.0195772018593923 -2.0164568741262543 -48.23524357092686 0 0 0
111 0 5 0 -2.020722835987044 -4.034350283722412 -46.23180170050106 0 0 0
112 0 5 0 -4.040919815441918 -2.0171525181566774 -46.23669049593125 0 0 0
330 0 5 0 -6.06348321113035 -6.05248294800968 -44.27309185616381 0 0 0
333 0 5 0 -4.042569975768987 -8.073535806238326 -44.27144057488214 0 0 0
334 0 5 0 -2.0215435815362697 -6.052682611926559 -44.27021046272677 0 0 0
362 0 5 0 -6.063286529233813 -2.017348490579802 -44.27836100970105 0 0 0
365 0 5 0 -4.041813992461094 -4.033967349132681 -44.2723214840104 0 0 0
366 0 5 0 -2.022162575557121 -2.015263167169707 -44.272165805315794 0 0 0
369 0 5 0 -0.0023135160886418845 -4.031925270339233 -44.26747485193643 0 0 0
84 0 5 0 -0.0008753547279000712 -6.051830653477985 -46.22851705851859 0 0 0
113 0 5 0 -0.0007782245481617124 -4.034584468977533 -48.23179121835093 0 0 0
116 0 5 0 -0.0013569346109883471 -2.014789885597014 -46.23147318834334 0 0 0
337 0 5 0 -0.0012829629718947853 -8.071651748565762 -44.26944115121119 0 0 0
81 0 5 0 -0.00126073414888888 -8.070937665369797 -48.230534887549084 0 0 0
82 0 5 0 2.0169765557005945 -6.051820356805868 -48.23045786916884 0 0 0
83 0 5 0 2.01764102104518 -8.069897288340162 -46.22860934185716 0 0 0
85 0 5 0 4.033895758115273 -8.069957175523113 -48.23109532912566 0 0 0
86 0 5 0 6.050798317831245 -6.051279693997175 -48.23257066674324 0 0 0
87 0 5 0 6.053622605099272 -8.0699934729171 -46.230018982235094 0 0 0
88 0 5 0 4.035436017406538 -6.051002608962582 -46.22745265249269 0 0 0
114 0 5 0 2.0162081356620654 -2.0150633081174334 -48.2326774662025 0 0 0
115 0 5 0 2.0173457335137606 -4.032766448655405 -46.22749843014349 0 0 0
117 0 5 0 4.033524798112373 -4.033229184818679 -48.23150352241163 0 0 0
118 0 5 0 6.050043167612321 -2.0140883046628866 -48.234375688489514 0 0 0
119 0 5 0 6.052321565900967 -4.032282291764426 -46.23045029415271 0 0 0
120 0 5 0 4.034153951609533 -2.0129449075121943 -46.230448682478865 0 0 0
338 0 5 0 2.018131579771199 -6.051683007696442 -44.26427897793372 0 0 0
341 0 5 0 4.037646805829217 -8.07073069960661 -44.2666942385959 0 0 0
342 0 5 0 6.056053789363161 -6.050725313132419 -44.266628563478164 0 0 0
370 0 5 0 2.0174607049896554 -2.010990487045987 -44.26739006734483 0 0 0
373 0 5 0 4.036799883259169 -4.030915801454688 -44.26500325034513 0 0 0
374 0 5 0 6.053056327381544 -2.0111852632727265 -44.27067909568933 0 0 0
89 0 5 0 8.068286897691484 -8.069284660436079 -48.23593136228446 0 0 0
92 0 5 0 8.071255786968637 -6.0514477852492785 -46.23278026895415 0 0 0
121 0 5 0 8.068241997565991 -4.0327299962099294 -48.23521932931126 0 0 0
124 0 5 0 8.069818433982018 -2.012617616715003 -46.23476073810349 0 0 0
345 0 5 0 8.074586173141565 -8.070180404588413 -44.269916048838425 0 0 0
377 0 5 0 8.072867762165508 -4.032528667198909 -44.27201262984562 0 0 0
353 0 5 0 16.152321462659057 -4.030507269892349 -44.28415762343134 -1 0 0
321 0 5 0 16.15126266214073 -8.071067489904054 -44.28434745504883 -1 0 0
95 0 5 0 14.129721688078584 -8.069284851574269 -46.24358762550695 0 0 0
349 0 5 0 12.111717736732052 -8.070988318177893 -44.27896357969434 0 0 0
65 0 5 0 16.15052309922341 -8.067699979678725 -48.24617227535429 -1 0 0
68 0 5 0 16.151533171771447 -6.05087402065744 -46.243504555351194 -1 0 0
97 0 5 0 16.151187359595216 -4.033582618203034 -48.24514518474061 -1 0 0
100 0 5 0 16.152170874292562 -2.013915995111411 -46.2475225611021 -1 0 0
90 0 5 0 10.087109450373427 -6.050861115146611 -48.23819064112621 0 0 0
91 0 5 0 10.089782555290759 -8.06992078152346 -46.23675267058875 0 0 0
93 0 5 0 12.106841483582185 -8.068291778876283 -48.24218583603543 0 0 0
94 0 5 0 14.12844333937442 -6.050592033648193 -48.243456665313374 0 0 0
96 0 5 0 12.109473491542506 -6.050977361323431 -46.2394041143881 0 0 0
122 0 5 0 10.0865170135937 -2.0141105977528677 -48.23955230884153 0 0 0
123 0 5 0 10.089845867830622 -4.032429128636553 -46.23657046886428 0 0 0
125 0 5 0 12.107041273944553 -4.032859481312942 -48.241585916808454 0 0 0
126 0 5 0 14.128614227610951 -2.014870784276509 -48.245822056677085 0 0 0
127 0 5 0 14.130333447789441 -4.032439514027368 -46.2433744938665 0 0 0
128 0 5 0 12.109559532557077 -2.013254048093034 -46.24240654205178 0 0 0
346 0 5 0 10.092725854991288 -6.051326454489378 -44.27365463540309 0 0 0
350 0 5 0 14.131933267037072 -6.0506521682455565 -44.281353284958385 0 0 0
378 0 5 0 10.091821998721379 -2.0116059648347226 -44.27874860928214 0 0 0
381 0 5 0 12.11260614945774 -4.031551161186694 -44.27884302030516 0 0 0
382 0 5 0 14.133077179886028 -2.011982262529472 -44.28593980978642 0 0 0
133 0 5 0 -12.123609407817298 0.001809815613759102 -48.24882078496014 0 0 0
135 0 5 0 -10.104342029215186 0.002793672460120487 -46.24617926402926 0 0 0
131 0 5 0 -14.146199974362894 0.004104997753874935 -46.25001016986945 0 0 0
389 0 5 0 -12.126375679143399 0.006063375747599834 -44.28670696053871 0 0 0
130 0 5 0 -14.145916565577641 2.022851185511812 -48.25199233504816 0 0 0
134 0 5 0 -10.101813530066956 2.022055382941547 -48.24893205445487 0 0 0
136 0 5 0 -12.125244266766302 2.023241645169976 -46.25212341583976 0 0 0
162 0 5 0 -14.144707323711364 6.064472495804403 -48.25602212524198 0 0 0
163 0 5 0 -14.146398978370545 4.044981975635832 -46.254829323293755 0 0 0
165 0 5 0 -12.123365550683564 4.0435224434534325 -48.252759772929295 0 0 0
166 0 5 0 -10.101250537679595 6.065525060452511 -48.2522941944179 0 0 0
167 0 5 0 -10.104548770763293 4.045081446410245 -46.25218197680027 0 0 0
168 0 5 0 -12.124484865463808 6.066272636093693 -46.25487020381013 0 0 0
386 0 5 0 -14.146862584112862 2.0243764794783083 -44.29396135044252 0 0 0
390 0 5 0 -10.107735299376936 2.024615546311921 -44.29026985070117 0 0 0
418 0 5 0 -14.147630562542242 6.067279140902233 -44.298351189991884 0 0 0
421 0 5 0 -12.125984607672304 4.044655190255062 -44.295887239007925 0 0 0
422 0 5 0 -10.10552950742811 6.06752060707433 -44.29337010054326 0 0 0
425 0 5 0 -8.089176859547498 4.047657033040477 -44.29080511774549 0 0 0
393 0 5 0 -8.085956461686727 0.0031679554494866194 -44.28393231237473 0 0 0
140 0 5 0 -8.084409054389768 2.0234676870709207 -46.24613830583415 0 0 0
172 0 5 0 -8.084044348126165 6.068293049998985 -46.24984556347451 0 0 0
137 0 5 0 -8.08061305958632 0.0017001796017300278 -48.24365019246785 0 0 0
169 0 5 0 -8.080592645651985 4.044191645661803 -48.24727653863779 0 0 0
139 0 5 0 -6.062804591585286 0.002428899980286114 -46.24069585405737 0 0 0
141 0 5 0 -4.0396472458425 0.003027311402385066 -48.23753101427697 0 0 0
143 0 5 0 -2.0208719325499227 0.0035096547121577595 -46.23565753240316 0 0 0
138 0 5 0 -6.060195209474755 2.023140132764953 -48.241346710414696 0 0 0
142 0 5 0 -2.020946426526171 2.024857109507239 -48.23546851250453 0 0 0
144 0 5 0 -4.0428753920397265 2.02444877138185 -46.23864268225735 0 0 0
170 0 5 0 -6.06023726466562 6.067091455365899 -48.24458996723185 0 0 0
171 0 5 0 -6.064552992313472 4.046638374862026 -46.24388462488806 0 0 0
173 0 5 0 -4.0407510381548795 4.0455287503347614 -48.23866860871341 0 0 0
174 0 5 0 -2.0227469502778765 6.068322296974115 -48.23816914382214 0 0 0
175 0 5 0 -2.0223668093326057 4.048110790653897 -46.237231193330956 0 0 0
176 0 5 0 -4.044016634999675 6.070051801375785 -46.24141353598899 0 0 0
394 0 5 0 -6.0677926180790385 2.024412224547727 -44.285133645525576 0 0 0
397 0 5 0 -4.043477145589579 0.0016516257927760528 -44.28055320427877 0 0 0
398 0 5 0 -2.021632182259914 2.02551375197541 -44.28126869808226 0 0 0
426 0 5 0 -6.06841373244862 6.072263352893771 -44.287380452384696 0 0 0
429 0 5 0 -4.046694650374883 4.04966003247486 -44.2856040370623 0 0 0
430 0 5 0 -2.0249031873833627 6.072201292192073 -44.280167381294774 0 0 0
145 0 5 0 -0.001626870850192528 0.0045880486808839655 -48.234628274897375 0 0 0
401 0 5 0 -0.0014200282798135808 0.0055160275941818614 -44.273324139248366 0 0 0
148 0 5 0 -0.00133837469447077 2.0264987232768763 -46.235007097683386 0 0 0
177 0 5 0 -0.003561747297535635 4.047073089031897 -48.236304817247344 0 0 0
180 0 5 0 -0.004443573641424059 6.070164122579174 -46.236769976878215 0 0 0
433 0 5 0 -0.0012648304786568839 4.050292895526954 -44.27738862863082 0 0 0
405 0 5 0 4.035469432144777 0.009395035667109605 -44.27086249189701 0 0 0
146 0 5 0 2.015128221211077 2.026217138924951 -48.23605532530352 0 0 0
147 0 5 0 2.0168395491703057 0.006352168869167393 -46.232886994257676 0 0 0
149 0 5 0 4.0325075932669945 0.0053820900628438455 -48.235439780106965 0 0 0
150 0 5 0 6.048401832706928 2.0265705631273985 -48.23989123226315 0 0 0
151 0 5 0 6.051057689182335 0.007834871378049373 -46.23495853006136 0 0 0
152 0 5 0 4.034024723956957 2.0281003546462513 -46.235866402539216 0 0 0
178 0 5 0 2.0122076412095073 6.0694327261002305 -48.237838504090504 0 0 0
179 0 5 0 2.0157670869986855 4.049004426141798 -46.23596489854458 0 0 0
181 0 5 0 4.030631410289989 4.048238788234972 -48.238915963700215 0 0 0
182 0 5 0 6.046195935022702 6.069794822640169 -48.24235602470918 0 0 0
183 0 5 0 6.050291304473661 4.049881277660952 -46.24026779986251 0 0 0
184 0 5 0 4.031252335308031 6.070475959870764 -46.23776306688001 0 0 0
402 0 5 0 2.0186230768417692 2.028384265364767 -44.274314099094646 0 0 0
406 0 5 0 6.0534574245726835 2.0313120423517885 -44.276050914407406 0 0 0
434 0 5 0 2.0149927049595653 6.071286803421806 -44.2752457742695 0 0 0
437 0 5 0 4.036010030413055 4.050529354241083 -44.27606214174963 0 0 0
438 0 5 0 6.051860124617534 6.071316217569269 -44.27904111479322 0 0 0
153 0 5 0 8.06692589910692 0.0056160250132496516 -48.239149717181355 0 0 0
188 0 5 0 8.067756220935332 6.070446289130047 -46.24534528086198 0 0 0
185 0 5 0 8.065115242931926 4.047954273740492 -48.24518905074627 0 0 0
156 0 5 0 8.068131499790757 2.0289830748378765 -46.24178768852567 0 0 0
409 0 5 0 8.070935301764672 0.01057452315026724 -44.27752168664332 0 0 0
441 0 5 0 8.071651244064114 4.052634121468625 -44.28357506225436 0 0 0
385 0 5 0 16.152343356995672 0.006319999050318986 -44.290402512477065 -1 0 0
417 0 5 0 16.15106043176708 4.047321800651485 -44.297459031906065 -1 0 0
129 0 5 0 16.151477189873905 0.0035741372933344785 -48.24984876341997 -1 0 0
132 0 5 0 16.15174844032047 2.025083413823365 -46.25278771485347 -1 0 0
161 0 5 0 16.15183373061185 4.044233834231637 -48.25424612751103 -1 0 0
155 0 5 0 10.088343880254072 0.007395742567176987 -46.241679619581014 0 0 0
157 0 5 0 12.106566758136927 0.0049502363707239075 -48.24528282174317 0 0 0
159 0 5 0 14.130642274455473 0.0062634169628839435 -46.24890202078105 0 0 0
413 0 5 0 12.112286193419337 0.009496335620127938 -44.28778513360142 0 0 0
164 0 5 0 16.15219527717171 6.066997806514205 -46.25818453074027 -1 0 0
154 0 5 0 10.085301801533276 2.0259198282837736 -48.24522399053449 0 0 0
158 0 5 0 14.12876957289887 2.024461920306463 -48.25116409090236 0 0 0
160 0 5 0 12.108846239004334 2.0278510234125395 -46.24969887562116 0 0 0
186 0 5 0 10.08407785570924 6.068404910816965 -48.251186596697806 0 0 0
187 0 5 0 10.08736728688188 4.0500183033356905 -46.249520523820536 0 0 0
189 0 5 0 12.106181601788267 4.046218116407087 -48.25189616296934 0 0 0
190 0 5 0 14.12896090508214 6.065931757433803 -48.25636092529227 0 0 0
191 0 5 0 14.129895885352546 4.04711351808758 -46.25506812547584 0 0 0
192 0 5 0 12.108102802130757 6.0692281372819465 -46.25567976376139 0 0 0
410 0 5 0 10.090129409611517 2.032389374788863 -44.28866788032915 0 0 0
414 0 5 0 14.130743615482713 2.028566162098892 -44.29277050936193 0 0 0
442 0 5 0 10.091623502851387 6.070751088694698 -44.28962981829582 0 0 0
445 0 5 0 12.109829094224047 4.051507765410602 -44.294714036464896 0 0 0
446 0 5 0 14.130325474747858 6.070706281293406 -44.30043916559807 0 0 0
197 0 5 0 -12.121882895375611 8.085926892006132 -48.256240829635445 0 0 0
195 0 5 0 -14.145316472206236 8.086679238209642 -46.25939673044573 0 0 0
199 0 5 0 -10.103193573386509 8.087896418675058 -46.253457548179504 0 0 0
453 0 5 0 -12.125524584816855 8.08853347983631 -44.29703210157289 0 0 0
194 0 5 0 -14.143630624785548 10.106915509400329 -48.26018981684624 0 0 0
198 0 5 0 -10.099767118373162 10.108211924123326 -48.254058116926345 0 0 0
200 0 5 0 -12.12326934212137 10.107379217027265 -46.25845179572702 0 0 0
226 0 5 0 -14.143794660339442 14.150816150268662 -48.25933814051276 0 0 0
227 0 5 0 -14.14492349731714 12.12772946473523 -46.26260394066524 0 0 0
229 0 5 0 -12.12085578708058 12.129069273060002 -48.25758369663533 0 0 0
230 0 5 0 -10.099011916404917 14.150799803886887 -48.25181255733428 0 0 0
231 0 5 0 -10.102294230000625 12.128159946338902 -46.25371440801445 0 0 0
232 0 5 0 -12.12331629525679 14.148737427875322 -46.25785216750514 0 0 0
450 0 5 0 -14.146795961193442 10.107901721308028 -44.3034195516483 0 0 0
454 0 5 0 -10.10593535285733 10.107975474996547 -44.29245123131408 0 0 0
482 0 5 0 -14.146821412927613 14.146093855215566 -44.30358113836577 0 0 0
485 0 5 0 -12.125634179477608 12.12672055384898 -44.29996969365178 0 0 0
486 0 5 0 -10.105173241173402 14.147280860026697 -44.29399954678423 0 0 0
489 0 5 0 -8.08726658582022 12.1273695468517 -44.28562404577876 0 0 0
457 0 5 0 -8.08705091493473 8.089533258938257 -44.287788273598494 0 0 0
204 0 5 0 -8.083096636248307 10.108997050408636 -46.2486455247139 0 0 0
236 0 5 0 -8.081789917878364 14.14919404068607 -46.24624747932124 0 0 0
201 0 5 0 -8.0798300494356 8.088213610594078 -48.2499643729616 0 0 0
205 0 5 0 -4.0415083309325315 8.09004621843676 -48.24159001374099 0 0 0
207 0 5 0 -2.025267911004421 8.091127351427323 -46.23796993385533 0 0 0
233 0 5 0 -8.07889098976022 12.130175193105995 -48.248346704788204 0 0 0
203 0 5 0 -6.063968240460635 8.090553561429102 -46.24522178018537 0 0 0
461 0 5 0 -4.0472346829470345 8.090832577152115 -44.279729596606735 0 0 0
202 0 5 0 -6.0599887266630565 10.110603612550698 -48.244769937807725 0 0 0
206 0 5 0 -2.024220856494196 10.11162977556577 -48.2375259865207 0 0 0
208 0 5 0 -4.044822598683058 10.11058425509147 -46.23846699321852 0 0 0
234 0 5 0 -6.059536602370031 14.150754140908193 -48.24185667243318 0 0 0
235 0 5 0 -6.063589211442761 12.129489072784079 -46.24113431057224 0 0 0
237 0 5 0 -4.041694834019395 12.131293592743953 -48.238605601704144 0 0 0
238 0 5 0 -2.0239979616895973 14.15089610242468 -48.234807744601255 0 0 0
239 0 5 0 -2.0264246515822006 12.130107231882107 -46.2329209017145 0 0 0
240 0 5 0 -4.044448906023217 14.149762892539869 -46.235316563420206 0 0 0
458 0 5 0 -6.068114383202568 10.108655430445307 -44.280752869041905 0 0 0
462 0 5 0 -2.02790500329948 10.108488225689042 -44.272809233722505 0 0 0
490 0 5 0 -6.066616759778505 14.148628049699497 -44.278487081352054 0 0 0
493 0 5 0 -4.048301494275893 12.128293174072992 -44.273841277386715 0 0 0
494 0 5 0 -2.02808282091849 14.149447979446593 -44.27040938858561 0 0 0
497 0 5 0 -0.009064752150001668 12.128871513242954 -44.26926735062744 0 0 0
465 0 5 0 -0.007074618399977616 8.090709673432404 -44.27489018127835 0 0 0
212 0 5 0 -0.007723901997579445 10.110998058146999 -46.233990092641264 0 0 0
241 0 5 0 -0.007426104925080246 12.13152099744558 -48.23471856158027 0 0 0
244 0 5 0 -0.007768000113623627 14.149586317022633 -46.23125742079572 0 0 0
209 0 5 0 -0.006341535156019816 8.090673725725363 -48.237351214578716 0 0 0
473 0 5 0 8.070443588461877 8.09031761656476 -44.284765897161876 0 0 0
211 0 5 0 2.0116098361130277 8.090930639110425 -46.23593262110006 0 0 0
213 0 5 0 4.02753315201187 8.090779293760477 -48.23939056415529 0 0 0
215 0 5 0 6.047444810421839 8.0904039231313 -46.24051214756057 0 0 0
469 0 5 0 4.030255183895762 8.090546400746536 -44.27487183388122 0 0 0
217 0 5 0 8.063537008164067 8.089891351049722 -48.246384174183724 0 0 0
210 0 5 0 2.009500808241582 10.111405998662885 -48.23678343768924 0 0 0
214 0 5 0 6.044168640024598 10.110676450527517 -48.241675273606624 0 0 0
216 0 5 0 4.027991772205398 10.110563177675756 -46.236486849712534 0 0 0
242 0 5 0 2.0098111020149214 14.151379126986441 -48.233963235037 0 0 0
243 0 5 0 2.010019667667132 12.130075102370057 -46.23278956503798 0 0 0
245 0 5 0 4.026166257476121 12.131162785975874 -48.23785749102053 0 0 0
246 0 5 0 6.044804084069228 14.151093455173072 -48.24053973986719 0 0 0
247 0 5 0 6.04635017966759 12.130275420957052 -46.24025612919657 0 0 0
248 0 5 0 4.028808322154552 14.150179842768685 -46.235204690830045 0 0 0
466 0 5 0 2.010545614616216 10.109561274048385 -44.271648376312 0 0 0
470 0 5 0 6.048556297915182 10.110204531894846 -44.27977434602636 0 0 0
498 0 5 0 2.0114853964325836 14.148967911383501 -44.27120160251064 0 0 0
501 0 5 0 4.0301059512313575 12.129801469303256 -44.27348621090962 0 0 0
502 0 5 0 6.049341321053416 14.150096343100182 -44.27894558031168 0 0 0
220 0 5 0 8.066392263506607 10.109367214243152 -46.24548608683292 0 0 0
249 0 5 0 8.063137463731751 12.130212039810566 -48.245180268303784 0 0 0
252 0 5 0 8.066987468727465 14.150444449162345 -46.24458995718559 0 0 0
505 0 5 0 8.069159263023202 12.129716883434723 -44.287515649020555 0 0 0
449 0 5 0 16.151465139045552 8.090155657644234 -44.3025248004255 -1 0 0
193 0 5 0 16.15282641486735 8.085657285854104 -48.25983517562094 -1 0 0
219 0 5 0 10.08761376147617 8.088851041857835 -46.25122669703363 0 0 0
221 0 5 0 12.1055955770401 8.087810083175881 -48.25644102499314 0 0 0
223 0 5 0 14.130280800734557 8.088582402803674 -46.26073149739954 0 0 0
477 0 5 0 12.112725630029995 8.089673170952189 -44.2963053966621 0 0 0
228 0 5 0 16.152879935572532 14.148479682464059 -46.26271895976315 -1 0 0
196 0 5 0 16.152582822445574 10.107191448773587 -46.263973717227216 -1 0 0
481 0 5 0 16.15252871478 12.125171684169265 -44.30619107053345 -1 0 0
225 0 5 0 16.152800028875422 12.128842561269941 -48.26194675236656 -1 0 0
218 0 5 0 10.083428355030765 10.109161796815895 -48.250949889116086 0 0 0
222 0 5 0 14.128877625127837 10.107452412299748 -48.26142919731057 0 0 0
224 0 5 0 12.109165648587693 10.107981176871824 -46.257735345581125 0 0 0
250 0 5 0 10.083343711929587 14.150435705232182 -48.250482046932866 0 0 0
251 0 5 0 10.087446355855521 12.129165357629715 -46.251096372629526 0 0 0
253 0 5 0 12.10504875757001 12.129015146685562 -48.25665198835849 0 0 0
254 0 5 0 14.128157761529959 14.15037484489679 -48.25829342130692 0 0 0
255 0 5 0 14.130470721270308 12.126921644379793 -46.26310009780508 0 0 0
256 0 5 0 12.107490643695257 14.148634829621237 -46.256819519761045 0 0 0
474 0 5 0 10.091857548754357 10.10813997371831 -44.29321375486658 0 0 0
478 0 5 0 14.132978872026676 10.108421576915594 -44.30125466470527 0 0 0
506 0 5 0 10.090914856842815 14.148730902804829 -44.29052206376049 0 0 0
509 0 5 0 12.113352984976158 12.126790414041842 -44.29891641185376 0 0 0
510 0 5 0 14.13204859202663 14.145729886219677 -44.306537628369604 0 0 0
264 0 5 0 -12.130104635653417 -14.133398365769999 -42.336930451031044 0 0 0
291 0 5 0 -14.151031540434335 -12.116340168025573 -42.33386380726483 0 0 0
295 0 5 0 -10.110698122498917 -12.112037898426713 -42.32891874464962 0 0 0
296 0 5 0 -12.131402467772386 -10.092425769683715 -42.32675208046641 0 0 0
514 0 5 0 -14.15185359082712 -14.144182853452884 -40.341708844775795 0 0 0
516 0 5 0 -10.11295489157249 -14.13679106570475 -40.33736877867264 0 0 0
530 0 5 0 -14.157649482249445 -10.103573267885649 -40.33767699599171 0 0 0
531 0 5 0 -12.13312673611171 -12.118786394256805 -40.33759279381781 0 0 0
532 0 5 0 -10.11896928309157 -10.094817902178434 -40.325648477610144 0 0 0
1286 2 2 0.5564 -11.224855611831268 -15.888176281580618 -37.80549995948255 0 0 0
1306 9 2 0.5564 -13.438657108683937 -13.040273450391602 -37.92330369866371 0 0 0
1308 10 1 -1.1128 -11.916651039660705 -14.084164862228928 -37.89177075171583 0 0 0
1309 10 2 0.5564 -11.497317582113203 -13.641237779008721 -38.62947454860225 0 0 0
1310 10 2 0.5564 -11.578604732223546 -13.633732520058008 -37.1177764096999 0 0 0
1311 11 1 -1.1128 -8.138324095541064 -10.07360263288008 -37.96826307541665 0 0 0
1332 18 1 -1.1128 -12.338666846840553 -10.166882564601345 -37.87803767418964 0 0 0
268 0 5 0 -8.088682441108455 -14.130289025403506 -42.32794676037858 0 0 0
1305 9 1 -1.1128 -14.09340857709575 -12.342240839325429 -37.90648551747628 0 0 0