LAMMPS data file via write_data, version 2 Aug 2023, timestep = 12000, units = real

1491 atoms
5 atom types
686 bonds
1 bond types
343 angles
1 angle types

-12.120000000000001 12.120000000000001 xlo xhi
-12.120000000000001 12.120000000000001 ylo yhi
-28.28 28.28 zlo zhi

Masses

1 15.9994
2 1.008
3 28.99
4 35.453
5 26.9815

Pair Coeffs # lj/cut/tip4p/long

1 0.185199 3.1589
2 0 0
3 0.0469 2.4299
4 0.15 4.0447
5 11.697 2.574

Bond Coeffs # harmonic

1 0 0.9572

Angle Coeffs # harmonic

1 0 104.52

Atoms # full

1 0 5 0 -12.120000000000001 -12.120000000000001 -20.2 0 0 0
2 0 5 0 -10.1 -10.1 -20.2 0 0 0
3 0 5 0 -10.1 -12.120000000000001 -18.18 0 0 0
4 0 5 0 -12.120000000000001 -10.1 -18.18 0 0 0
5 0 5 0 -8.08 -12.120000000000001 -20.2 0 0 0
6 0 5 0 -6.0600000000000005 -10.1 -20.2 0 0 0
7 0 5 0 -6.0600000000000005 -12.120000000000001 -18.18 0 0 0
8 0 5 0 -8.08 -10.1 -18.18 0 0 0
25 0 5 0 -12.120000000000001 -8.08 -20.2 0 0 0
26 0 5 0 -10.1 -6.0600000000000005 -20.2 0 0 0
27 0 5 0 -10.1 -8.08 -18.18 0 0 0
28 0 5 0 -12.120000000000001 -6.0600000000000005 -18.18 0 0 0
29 0 5 0 -8.08 -8.08 -20.2 0 0 0
30 0 5 0 -6.0600000000000005 -6.0600000000000005 -20.2 0 0 0
31 0 5 0 -6.0600000000000005 -8.08 -18.18 0 0 0
32 0 5 0 -8.08 -6.0600000000000005 -18.18 0 0 0
49 0 5 0 -12.120000000000001 -4.04 -20.2 0 0 0
50 0 5 0 -10.1 -2.02 -20.2 0 0 0
51 0 5 0 -10.1 -4.04 -18.18 0 0 0
52 0 5 0 -12.120000000000001 -2.02 -18.18 0 0 0
53 0 5 0 -8.08 -4.04 -20.2 0 0 0
54 0 5 0 -6.0600000000000005 -2.02 -20.2 0 0 0
55 0 5 0 -6.0600000000000005 -4.04 -18.18 0 0 0
56 0 5 0 -8.08 -2.02 -18.18 0 0 0
73 0 5 0 -12.120000000000001 -12.120000000000001 -16.16 0 0 0
74 0 5 0 -10.1 -10.1 -16.16 0 0 0
75 0 5 0 -8.08 -12.120000000000001 -16.16 0 0 0
76 0 5 0 -6.0600000000000005 -10.1 -16.16 0 0 0
85 0 5 0 -12.120000000000001 -8.08 -16.16 0 0 0
86 0 5 0 -10.1 -6.0600000000000005 -16.16 0 0 0
87 0 5 0 -8.08 -8.08 -16.16 0 0 0
88 0 5 0 -6.0600000000000005 -6.0600000000000005 -16.16 0 0 0
97 0 5 0 -12.120000000000001 -4.04 -16.16 0 0 0
98 0 5 0 -10.1 -2.02 -16.16 0 0 0
99 0 5 0 -8.08 -4.04 -16.16 0 0 0
100 0 5 0 -6.0600000000000005 -2.02 -16.16 0 0 0
548 39 2 0.5564 -4.381353054712488 -2.6534967352004473 -14.32413421873263 0 0 0
9 0 5 0 -4.04 -12.120000000000001 -20.2 0 0 0
10 0 5 0 -2.02 -10.1 -20.2 0 0 0
11 0 5 0 -2.02 -12.120000000000001 -18.18 0 0 0
12 0 5 0 -4.04 -10.1 -18.18 0 0 0
13 0 5 0 0 -12.120000000000001 -20.2 0 0 0
14 0 5 0 2.02 -10.1 -20.2 0 0 0
15 0 5 0 2.02 -12.120000000000001 -18.18 0 0 0
16 0 5 0 0 -10.1 -18.18 0 0 0
17 0 5 0 4.04 -12.120000000000001 -20.2 0 0 0
20 0 5 0 4.04 -10.1 -18.18 0 0 0
33 0 5 0 -4.04 -8.08 -20.2 0 0 0
34 0 5 0 -2.02 -6.0600000000000005 -20.2 0 0 0
35 0 5 0 -2.02 -8.08 -18.18 0 0 0
36 0 5 0 -4.04 -6.0600000000000005 -18.18 0 0 0
37 0 5 0 0 -8.08 -20.2 0 0 0
38 0 5 0 2.02 -6.0600000000000005 -20.2 0 0 0
39 0 5 0 2.02 -8.08 -18.18 0 0 0
40 0 5 0 0 -6.0600000000000005 -18.18 0 0 0
41 0 5 0 4.04 -8.08 -20.2 0 0 0
44 0 5 0 4.04 -6.0600000000000005 -18.18 0 0 0
57 0 5 0 -4.04 -4.04 -20.2 0 0 0
58 0 5 0 -2.02 -2.02 -20.2 0 0 0
59 0 5 0 -2.02 -4.04 -18.18 0 0 0
60 0 5 0 -4.04 -2.02 -18.18 0 0 0
61 0 5 0 0 -4.04 -20.2 0 0 0
62 0 5 0 2.02 -2.02 -20.2 0 0 0
63 0 5 0 2.02 -4.04 -18.18 0 0 0
64 0 5 0 0 -2.02 -18.18 0 0 0
65 0 5 0 4.04 -4.04 -20.2 0 0 0
68 0 5 0 4.04 -2.02 -18.18 0 0 0
77 0 5 0 -4.04 -12.120000000000001 -16.16 0 0 0
78 0 5 0 -2.02 -10.1 -16.16 0 0 0
79 0 5 0 0 -12.120000000000001 -16.16 0 0 0
80 0 5 0 2.02 -10.1 -16.16 0 0 0
81 0 5 0 4.04 -12.120000000000001 -16.16 0 0 0
89 0 5 0 -4.04 -8.08 -16.16 0 0 0
90 0 5 0 -2.02 -6.0600000000000005 -16.16 0 0 0
91 0 5 0 0 -8.08 -16.16 0 0 0
92 0 5 0 2.02 -6.0600000000000005 -16.16 0 0 0
93 0 5 0 4.04 -8.08 -16.16 0 0 0
101 0 5 0 -4.04 -4.04 -16.16 0 0 0
102 0 5 0 -2.02 -2.02 -16.16 0 0 0
103 0 5 0 0 -4.04 -16.16 0 0 0
104 0 5 0 2.02 -2.02 -16.16 0 0 0
105 0 5 0 4.04 -4.04 -16.16 0 0 0
18 0 5 0 6.0600000000000005 -10.1 -20.2 0 0 0
19 0 5 0 6.0600000000000005 -12.120000000000001 -18.18 0 0 0
43 0 5 0 6.0600000000000005 -8.08 -18.18 0 0 0
42 0 5 0 6.0600000000000005 -6.0600000000000005 -20.2 0 0 0
24 0 5 0 8.08 -10.1 -18.18 0 0 0
22 0 5 0 10.1 -10.1 -20.2 0 0 0
23 0 5 0 10.1 -12.120000000000001 -18.18 0 0 0
21 0 5 0 8.08 -12.120000000000001 -20.2 0 0 0
48 0 5 0 8.08 -6.0600000000000005 -18.18 0 0 0
46 0 5 0 10.1 -6.0600000000000005 -20.2 0 0 0
66 0 5 0 6.0600000000000005 -2.02 -20.2 0 0 0
47 0 5 0 10.1 -8.08 -18.18 0 0 0
45 0 5 0 8.08 -8.08 -20.2 0 0 0
67 0 5 0 6.0600000000000005 -4.04 -18.18 0 0 0
71 0 5 0 10.1 -4.04 -18.18 0 0 0
72 0 5 0 8.08 -2.02 -18.18 0 0 0
69 0 5 0 8.08 -4.04 -20.2 0 0 0
70 0 5 0 10.1 -2.02 -20.2 0 0 0
83 0 5 0 8.08 -12.120000000000001 -16.16 0 0 0
82 0 5 0 6.0600000000000005 -10.1 -16.16 0 0 0
84 0 5 0 10.1 -10.1 -16.16 0 0 0
94 0 5 0 6.0600000000000005 -6.0600000000000005 -16.16 0 0 0
95 0 5 0 8.08 -8.08 -16.16 0 0 0
96 0 5 0 10.1 -6.0600000000000005 -16.16 0 0 0
106 0 5 0 6.0600000000000005 -2.02 -16.16 0 0 0
107 0 5 0 8.08 -4.04 -16.16 0 0 0
108 0 5 0 10.1 -2.02 -16.16 0 0 0
1058 209 2 0.5564 2.3476687658825575 -3.4860123037096975 -14.627691339261625 0 0 0
521 30 2 0.5564 12.11213590745601 -9.800823136392323 -14.210465254702921 -1 0 0
890 153 2 0.5564 2.1187987588605344 -0.2216786822539841 -14.352224960197507 0 0 0
486 18 2 0.5564 -6.321872133479095 -3.316861498433872 -14.28202176314379 0 0 0
467 12 2 0.5564 5.394180879595201 -4.313181009578061 -14.252473858807233 0 0 0
454 8 1 -1.1128 -8.307656978508962 -10.087551648513 -13.701782379603745 0 0 0
455 8 2 0.5564 -7.6023785428674335 -9.459502859047305 -13.545676923511378 0 0 0
478 16 1 -1.1128 -8.008056391565027 -5.840984111897952 -13.673253388229368 0 0 0
1151 240 2 0.5564 -9.734494744827947 -2.658845897007271 -4.1764562096756634 0 0 0
1047 205 2 0.5564 -10.859216117357693 -0.8059656491473107 -13.776195059443294 0 0 0
1313 294 2 0.5564 -8.935463628483365 -4.8284752201103425 -5.1182229346341686 1 0 0
580 50 1 -1.1128 -8.09301267327886 -7.3663267119257885 -10.637331326035918 0 0 0
581 50 2 0.5564 -8.105381079828469 -6.602268792770474 -11.213781146877874 0 0 0
582 50 2 0.5564 -8.990250555529835 -7.698982549513777 -10.66049951643823 0 0 0
604 58 1 -1.1128 -10.437648385352576 -8.816574204915344 -11.254424542037325 0 0 0
605 58 2 0.5564 -10.592360253729131 -9.753211742854177 -11.131920787999645 0 0 0
606 58 2 0.5564 -10.983334938104722 -8.394403353165007 -10.590926076091513 0 0 0
1130 233 2 0.5564 -8.681494642454888 -4.213181440719941 -10.416258531199352 0 0 0
1131 233 2 0.5564 -9.401991515203356 -4.024903912504086 -11.734337485842941 0 0 0
1464 0 3 1.1 -6.104011192662445 -8.631717195845773 -10.842469406739468 0 0 0
1478 0 4 -1.1 -6.016931721190345 -7.983926618673551 -13.272684392491087 0 0 0
1129 233 1 -1.1128 -9.548985079459039 -4.055828438299898 -10.788996978336998 0 0 0
706 92 1 -1.1128 -7.5978424558476325 -10.186112111943599 -3.721046785883696 0 0 0
731 100 2 0.5564 -5.9861870113638265 -10.273891367594691 -6.65908579578462 0 0 0
733 101 1 -1.1128 -6.808086540278517 -3.9349104531750743 -10.03604964480368 0 0 0
484 18 1 -1.1128 -5.879333639516346 -3.8552048647693677 -13.625837371069519 0 0 0
734 101 2 0.5564 -6.415229041298144 -3.133368931972241 -10.3816304274242 0 0 0
621 63 2 0.5564 -11.822939040393303 -4.484162243533208 -11.441797133168652 1 0 0
730 100 1 -1.1128 -5.090150311141979 -9.941102641994611 -6.608065972238145 0 0 0
1044 204 2 0.5564 -9.932227150246957 -2.95851635327985 -9.734090161655764 0 0 0
494 21 2 0.5564 10.862635048690132 -0.8311168249235766 -14.072900204173115 0 0 0
769 113 1 -1.1128 -8.745901418315453 -7.937686971385269 -4.767352865065857 0 0 0
667 79 1 -1.1128 -6.275754158458177 -8.030923532380568 -8.182456107136577 0 0 0
1212 260 2 0.5564 -8.630783965630137 -2.459861850423086 -7.967257835473283 0 0 0
669 79 2 0.5564 -6.703912532272285 -7.458655960128514 -7.545728005259271 0 0 0
668 79 2 0.5564 -5.68218539451267 -8.56995999794067 -7.659628385710704 0 0 0
451 7 1 -1.1128 -9.912786469616117 -3.7719052848121573 -13.771282422616288 1 0 0
810 126 2 0.5564 -11.574265675419685 -9.577426837676756 -5.637471590598715 1 0 0
793 121 1 -1.1128 -5.261339261811302 -11.431668062710312 -2.4035018201300127 0 0 0
794 121 2 0.5564 -4.887660607390717 -10.550532207680495 -2.389492975086863 0 0 0
732 100 2 0.5564 -5.086963832451039 -9.378085748417254 -5.83396401044106 0 0 0
1042 204 1 -1.1128 -10.094852512257791 -2.219946968288347 -9.147319154331683 0 0 0
544 38 1 -1.1128 -7.917833300023894 -1.9659254881890837 -13.711224608347939 0 0 0
527 32 2 0.5564 -2.7784279531842784 -8.725935565576208 -13.836274841347596 0 0 0
1211 260 2 0.5564 -8.161037250623476 -1.4488650607287332 -6.942992869505165 0 0 0
881 150 2 0.5564 -6.274894453597379 -11.430175410984566 -10.285368859190587 0 0 0
1481 0 4 -1.1 -6.404130393189051 -5.978538821791245 -5.72905139667314 0 0 0
525 31 2 0.5564 -4.910022821826325 -6.103687267130809 -11.884971906254929 0 0 0
1043 204 2 0.5564 -10.040812640964553 -1.4486817403013572 -9.711643089711195 0 0 0
523 31 1 -1.1128 -5.146842530807912 -6.048029665894836 -10.959201017684762 0 0 0
1334 301 2 0.5564 -9.216404458414996 -3.7166308768485643 -1.964760586522438 1 0 0
882 150 2 0.5564 -7.720599709986166 -11.000036241767729 -10.155708506622075 0 0 0
880 150 1 -1.1128 -6.883658955267566 -10.735998396784128 -10.537868208140413 0 0 0
524 31 2 0.5564 -5.876418937902336 -5.428868193988532 -10.934922046580516 0 0 0
809 126 2 0.5564 -10.345428889648009 -8.734987914905822 -5.368857434421435 1 0 0
611 60 2 0.5564 -4.33026008819708 -6.6740650287534935 -5.5015210499202585 0 0 0
735 101 2 0.5564 -6.431933893963412 -4.028526840240318 -9.16084851631549 0 0 0
482 17 2 0.5564 -4.52842749692557 -6.561695905740189 -13.841372931085552 0 0 0
1210 260 1 -1.1128 -8.162136383055778 -2.3864309946173927 -7.135867910082226 0 0 0
833 134 2 0.5564 -4.649942631150192 -4.418801307910788 -7.826072615239751 0 0 0
707 92 2 0.5564 -7.4299878808957525 -10.614221396715935 -4.560558039476433 0 0 0
1250 273 2 0.5564 -9.914996249404297 -1.8578638371135159 -1.9346239699009742 1 0 0
708 92 2 0.5564 -6.807687010043679 -10.349536650270306 -3.2060917947812557 0 0 0
834 134 2 0.5564 -4.316875853528627 -2.9425120269809626 -7.786935869196619 0 0 0
832 134 1 -1.1128 -5.0052571355619575 -3.569336339100463 -7.56455247482833 0 0 0
1466 0 3 1.1 -6.612916678026592 -3.5147572520358583 -5.995407833880636 1 0 0
1312 294 1 -1.1128 -9.797369816863307 -4.6332548919692655 -4.750474931352668 1 0 0
545 38 2 0.5564 -7.943811669870075 -1.7034061131349978 -12.791093879638808 0 0 0
1417 329 1 -1.1128 -6.536425172007005 -6.5349776448837815 -2.8380117119414376 1 0 0
1416 328 2 0.5564 -9.696088020482398 -7.201072402408688 -3.386244221531293 1 0 0
1251 273 2 0.5564 -11.121070369583377 -1.773769742204383 -1.0234659099978545 1 0 0
1475 0 3 1.1 -6.675274723019891 -4.3852446892742085 -2.054069953267278 0 0 0
771 113 2 0.5564 -8.037647515006645 -7.425870706802215 -5.158060394331215 0 0 0
520 30 1 -1.1128 12.03350220748458 -10.468439226167916 -13.529042118704284 -1 0 0
726 98 2 0.5564 -11.134585392009468 -11.979966703773373 -6.3253334464969155 1 0 0
1490 0 4 -1.1 -6.603403791340937 -2.5618189187693723 -3.7691642527812537 1 0 0
1333 301 1 -1.1128 -8.971953862252942 -4.591952384435254 -1.6642805955775817 1 0 0
770 113 2 0.5564 -8.314832952173168 -8.719513195194564 -4.422157848114326 0 0 0
808 126 1 -1.1128 -11.288581645242726 -8.67151357135113 -5.519411845754139 1 0 0
1314 294 2 0.5564 -10.046303590252935 -5.431916766933044 -4.285283508821768 1 0 0
1249 273 1 -1.1128 -10.16933578255845 -1.8752668975704039 -1.0119965697499005 1 0 0
1414 328 1 -1.1128 -10.409294286149477 -6.671380313004196 -3.0298806682129 1 0 0
795 121 2 0.5564 -4.576019169546588 -11.988872495904747 -2.0345954107642177 0 0 0
1418 329 2 0.5564 -6.4355587968443375 -6.377699826440088 -3.7767990035361794 1 0 0
643 71 1 -1.1128 -10.838805442018215 -11.674667354598496 -11.03769738901955 0 0 0
1419 329 2 0.5564 -5.778698868323387 -7.06991357292334 -2.601524400123676 1 0 0
442 4 1 -1.1128 -4.0345412372601235 -10.01106041097068 -13.621879435872156 0 0 0
530 33 2 0.5564 0.761834351538417 -6.843021922160756 -13.767710275074515 0 0 0
1335 301 2 0.5564 -9.677077046769208 -5.158686537527888 -1.9770843771425173 1 0 0
542 37 2 0.5564 -10.075860561407303 -8.167485029358629 -12.908820439950885 0 0 0
729 99 2 0.5564 -10.974341192225967 -5.453873178824266 -5.82960932480951 0 0 0
619 63 1 -1.1128 11.532325428095591 -4.608917520992477 -11.098415273110659 0 0 0
728 99 2 0.5564 -11.665026116993626 -6.783659406978846 -6.045294456035952 0 0 0
620 63 2 0.5564 10.992771830370687 -4.759969603428458 -11.874493372048775 0 0 0
724 98 1 -1.1128 -11.94161169977464 -11.664000094569912 -5.919001659950757 1 0 0
1415 328 2 0.5564 -11.1598887356703 -7.264875078264574 -3.0053086730666254 1 0 0
1482 0 4 -1.1 -5.371847448901544 -1.5241499855758707 -11.333320019264738 0 0 0
443 4 2 0.5564 -4.6084392479727585 -9.251896368293734 -13.72455939813948 0 0 0
1380 316 2 0.5564 -3.15073567801236 -5.738452979666689 -4.424762872204095 0 0 0
612 60 2 0.5564 -2.9953964169518494 -7.271682443074858 -5.8925295643695685 0 0 0
549 39 2 0.5564 -4.360091835380096 -1.5215505321533318 -13.319076332527136 0 0 0
610 60 1 -1.1128 -3.603955212549936 -7.194201722881513 -5.157761048506355 0 0 0
1150 240 1 -1.1128 -9.61551783886936 -1.8391359462931558 -3.696714657411481 0 0 0
1295 288 2 0.5564 -4.742908579420579 -1.4776632729048254 -3.907210070935416 0 0 0
665 78 2 0.5564 -11.204363054391488 -6.521707531285778 -8.296991817388845 0 0 0
664 78 1 -1.1128 -11.516862031241095 -6.934888262939861 -9.101888303129009 0 0 0
666 78 2 0.5564 11.938491303803806 -6.439582287641404 -9.336906390409764 -1 0 0
1152 240 2 0.5564 -8.66811837272783 -1.702973514843909 -3.685493258464164 0 0 0
588 52 2 0.5564 -4.859938912213303 -11.931094790889059 -7.370920653259609 0 0 0
452 7 2 0.5564 -9.47736426218482 -4.623375389855354 -13.81175487654503 1 0 0
453 7 2 0.5564 -9.197378332347345 -3.135990716966407 -13.777259601087275 1 0 0
871 147 1 -1.1128 4.6739457432208 -12.109822134762561 -1.3991070605159157 0 0 0
969 179 2 0.5564 -2.5583453822765367 -4.627075471855573 -13.956703940689446 0 0 0
996 188 2 0.5564 9.583980187007983 -0.3622106993290241 -10.49672637036863 0 0 0
776 115 2 0.5564 -4.14108560136654 -1.1465251661522204 -0.7240127770092026 0 0 0
1099 223 1 -1.1128 4.360243879315714 -0.4681115143630423 -9.695962286971737 0 0 0
978 182 2 0.5564 10.937163574260698 -0.11494864277422097 -8.952991636082517 0 0 0
440 3 2 0.5564 -1.1371682007365238 -11.372609212226745 -13.678722420965247 0 0 0
444 4 2 0.5564 -4.630591001084174 -10.75904518338551 -13.583467261518265 0 0 0
1035 201 2 0.5564 2.489532344519556 -11.429973292110262 -13.799749448692388 0 1 0
1101 223 2 0.5564 5.050470714486142 -0.42574222028535746 -10.357796487597463 0 0 0
1147 239 1 -1.1128 10.868616692704096 -0.2330900156680294 -6.234345252977872 -1 0 0
1294 288 1 -1.1128 -3.831114159282238 -1.1867007027029295 -3.9214788223047607 0 0 0
883 151 1 -1.1128 -2.0432431563492486 -0.17832996754173253 -13.78092918187821 0 0 0
1400 323 2 0.5564 -4.006224419078893 -3.5825422098577793 -1.4627554236551048 0 0 0
470 13 2 0.5564 8.610755067981113 -2.960130708838119 -13.67771489268723 0 0 0
531 33 2 0.5564 0.8405261865547707 -5.33611751568137 -13.889947484763137 0 0 0
686 85 2 0.5564 -7.932168472822473 -11.53888439109826 -2.3601156800540215 0 0 0
963 177 2 0.5564 12.117303992503157 -1.9771508843692842 -12.949385382080555 -1 0 0
1401 323 2 0.5564 -4.023529250621617 -4.733072216954519 -2.4465625488645864 0 0 0
961 177 1 -1.1128 -12.091208923379199 -2.1455056023171064 -13.891137547664739 0 0 0
493 21 1 -1.1128 10.370510465421454 -0.05701889198668005 -13.799370500064835 0 0 0
1399 323 1 -1.1128 -4.444523177686201 -4.412922199328258 -1.6487530791597529 0 0 0
741 103 2 0.5564 11.616757914329382 -11.687450984249647 -2.063405641630793 0 0 0
458 9 2 0.5564 11.41437070980847 -6.936915960095486 -13.87030762927155 -1 0 0
1128 232 2 0.5564 -11.925077618343702 -2.3441576766927197 -8.667507557721681 0 0 0
504 24 2 0.5564 -6.757157561014014 -11.417715953451847 -13.175833713288863 0 0 0
480 16 2 0.5564 -7.57106758324023 -6.659548445728598 -13.438252933248929 0 0 0
541 37 1 -1.1128 -9.920245585542988 -7.941952281841069 -13.825963197470061 0 0 0
1169 246 2 0.5564 -11.008480651391054 -0.627156694102908 -3.9873359920570977 0 0 0
434 1 2 0.5564 10.743529827210194 -4.6799830181229565 -13.930538316930175 -1 0 0
767 112 2 0.5564 6.364586573607467 -11.781718741254602 -4.617058361335198 0 0 0
584 51 2 0.5564 9.539636135396048 -11.4823032673134 -14.073952599690895 -1 0 0
1440 336 2 0.5564 -8.151598547340045 -3.2009140447878957 -0.22647697582359336 1 0 0
711 93 2 0.5564 -7.843026283814207 -11.806922398691391 -6.835272638397436 0 0 0
884 151 2 0.5564 -1.9672034658981612 -0.2999952554850412 -12.834542684310593 0 0 0
775 115 1 -1.1128 -3.457730661401552 -1.7800739585702676 -0.9428141285468651 0 0 0
885 151 2 0.5564 -2.5653976351964776 -0.9237251609910974 -14.07753102122165 0 0 0
715 95 1 -1.1128 0.40980489788139696 -11.253175969209877 -2.6095725004108514 0 0 0
459 9 2 0.5564 -11.34707881249523 -6.740630625960906 -13.610970498024612 0 0 0
547 39 1 -1.1128 -3.8015325320084647 -2.0014604282930755 -13.930575123393352 0 0 0
1052 207 2 0.5564 -3.551227198663048 -1.992650558003466 -11.03271480441999 0 0 0
1046 205 2 0.5564 -9.346086691309349 -0.8460775558601388 -13.803142604972257 0 0 0
702 90 2 0.5564 4.128434172127988 -11.339069483657726 -4.898210685911492 0 0 0
532 34 1 -1.1128 4.8670475793425565 -9.729154122822345 -9.10896196206763 0 0 0
551 40 2 0.5564 -0.5640519595246102 -2.6991564941897708 -13.684253963754761 0 0 0
975 181 2 0.5564 6.157066528934444 -0.26704119698469825 -6.586565567808712 0 0 0
671 80 2 0.5564 -3.63238340125843 -8.339887215534132 -3.882994275114887 0 0 0
670 80 1 -1.1128 -3.7577196011347147 -8.899464539115396 -3.1165766822456553 0 0 0
672 80 2 0.5564 -2.8894872631945256 -9.261219898230683 -2.938988646429482 0 0 0
485 18 2 0.5564 -5.9043888124326855 -3.328653061573595 -12.826870968998202 0 0 0
1162 244 1 -1.1128 3.1269214124519533 -3.7106584001562775 -6.927041201003672 0 0 0
1163 244 2 0.5564 2.490222653298988 -3.0220521620818395 -6.735550664518876 0 0 0
1244 271 2 0.5564 0.9524417045323063 -2.393502293131647 -12.35784814461751 0 0 0
608 59 2 0.5564 -4.122094576159869 -10.780489786335144 -10.611502275816425 0 0 0
607 59 1 -1.1128 -3.945440736065226 -9.883667325364934 -10.895641002012514 0 0 0
609 59 2 0.5564 -3.931756574871813 -9.93305192338525 -11.851468291346238 0 0 0
479 16 2 0.5564 -7.294709155880333 -5.214376163556656 -13.79462114144854 0 0 0
968 179 2 0.5564 -1.0608948577921575 -4.715644913994281 -13.752516343641698 0 0 0
967 179 1 -1.1128 -1.7940622089130591 -4.101051763069452 -13.72132735309857 0 0 0
513 27 2 0.5564 2.624184928087486 -11.050369150150342 -11.01580330270496 0 0 0
854 141 2 0.5564 -2.802723813812214 -2.5479504121491234 -6.166400530121828 0 0 0
1184 251 2 0.5564 0.33963115458349674 -1.9891421785205834 -5.5761103152348035 0 0 0
855 141 2 0.5564 -2.9785592940018515 -2.2797009568576083 -4.686867027669894 0 0 0
962 177 2 0.5564 -11.42490657173564 -2.825396991302741 -13.991241272000947 0 0 0
853 141 1 -1.1128 -2.5685113600449245 -2.887203848657792 -5.302523520165492 0 0 0
1379 316 2 0.5564 -2.904128194017319 -4.244867821399677 -4.4415965532822455 0 0 0
1378 316 1 -1.1128 -3.032619469423187 -4.984201406172128 -3.8473678681797026 0 0 0
1245 271 2 0.5564 1.3048463646413089 -2.4782181995902293 -10.887973265430418 0 0 0
481 17 1 -1.1128 -3.9518373643592444 -5.8936937068834325 -13.470497249373471 0 0 0
1053 207 2 0.5564 -2.5005180668214466 -2.929381052290633 -11.589887656201554 0 0 0
777 115 2 0.5564 -2.667323445546156 -1.4329148712630835 -0.5293292015173844 0 0 0
1138 236 1 -1.1128 0.5304833690403333 -1.9595529072260667 -9.181318563436461 0 0 0
736 102 1 -1.1128 -2.7302005599595067 -1.925839171543261 -8.035604018749963 0 0 0
738 102 2 0.5564 -2.6363698180645194 -2.151609391001793 -8.96105280297882 0 0 0
655 75 1 -1.1128 -0.6478496626147945 -5.6182811523996055 -2.710075642443557 0 0 0
676 82 1 -1.1128 -3.8420201868410047 -5.818230088385038 -8.407640692239571 0 0 0
654 74 2 0.5564 -0.9768107129479899 -3.09275567664298 -4.400638387751521 0 0 0
656 75 2 0.5564 -0.6084358634016307 -5.833110529849443 -1.7781278074712743 0 0 0
678 82 2 0.5564 -4.571334648857902 -6.252983524843673 -7.965688525873208 0 0 0
677 82 2 0.5564 -4.151189134495498 -5.6815614805084245 -9.303167420309071 0 0 0
673 81 1 -1.1128 -1.1331167838422986 -10.158975418794629 -10.683954095816109 0 0 0
1139 236 2 0.5564 0.686101897889159 -1.9665626290477154 -8.236878737658103 0 0 0
445 5 1 -1.1128 2.0038983186987536 -8.00486061352655 -13.700770812483094 0 0 0
508 26 1 -1.1128 -0.014291094971637405 -9.951408593093625 -13.786969382564576 0 0 0
714 94 2 0.5564 -1.40061407082937 -12.069666130695056 -2.2170411197863915 0 0 0
526 32 1 -1.1128 -2.0432720372163535 -8.113160306442683 -13.81939543197964 0 0 0
529 33 1 -1.1128 0.2532590653988301 -6.044529294040502 -13.626315144664702 0 0 0
550 40 1 -1.1128 0.0778921354013211 -1.996625051124971 -13.787157912603844 0 0 0
437 2 2 0.5564 -9.186241657322023 -11.75818241305479 -14.01781301036744 0 0 0
589 53 1 -1.1128 -1.4873993529425449 -9.133414016245654 -6.199629458033687 0 0 0
590 53 2 0.5564 -1.8764224640757943 -9.970005612736967 -6.454595302905137 0 0 0
591 53 2 0.5564 -1.2420073199012718 -8.720589871500296 -7.027634033113038 0 0 0
592 54 1 -1.1128 0.6414353813568635 -10.489494478399664 -8.306694551633253 0 0 0
594 54 2 0.5564 0.6014637602615691 -9.543122855737867 -8.444591904085733 0 0 0
613 61 1 -1.1128 -0.2292586855674878 -5.886558315847217 -11.07241295494331 0 0 0
614 61 2 0.5564 -1.1490258803096525 -5.637410972637656 -10.981937805084572 0 0 0
615 61 2 0.5564 -0.10954612965571076 -6.025469463806587 -12.011883277357313 0 0 0
652 74 1 -1.1128 -0.22985184052900112 -2.9733507387919156 -3.814099580513789 0 0 0
675 81 2 0.5564 -0.995053183225954 -9.606137496431376 -11.453070982370583 0 0 0
725 98 2 0.5564 11.604888336571912 -11.934292717594852 -6.520858406417098 0 0 0
653 74 2 0.5564 -0.08336204952407067 -3.8390122964941558 -3.432781733543342 0 0 0
657 75 2 0.5564 -1.5704100074408727 -5.42114674532839 -2.872105829424978 0 0 0
593 54 2 0.5564 1.5384511299327241 -10.651795602187505 -8.014712616516933 0 0 0
716 95 2 0.5564 0.43419098725635735 -10.301572351465298 -2.710013519791392 0 0 0
1143 237 2 0.5564 4.236068115327131 -4.990015491888089 -10.566490761388254 0 0 0
554 41 2 0.5564 1.2382946972737834 -7.047406381586046 -10.564578952682151 0 0 0
1060 210 1 -1.1128 5.443384195608292 -3.0441337966058426 -5.7206118174767955 0 0 0
1059 209 2 0.5564 2.0925916635026716 -3.7376331562928122 -13.156801039299625 0 0 0
1140 236 2 0.5564 -0.4197663868910246 -1.8830890342627227 -9.26740432236086 0 0 0
1057 209 1 -1.1128 1.9369951295599093 -4.106987912761693 -14.026053271581315 0 0 0
468 12 2 0.5564 5.207940532023277 -2.948155476078194 -13.624847330904245 0 0 0
680 83 2 0.5564 0.5697436196595888 -7.229884447108572 -8.248935431289082 0 0 0
1161 243 2 0.5564 3.0605226618690913 -3.247645605880735 -10.41378589843243 0 0 0
679 83 1 -1.1128 -0.1853326854604868 -7.765657984017087 -8.49191715275468 0 0 0
722 97 2 0.5564 -0.8714138097454927 -8.90975291036625 -4.4395950985117585 0 0 0
681 83 2 0.5564 -0.5503376698200628 -7.33056260678655 -9.262433481220793 0 0 0
674 81 2 0.5564 -2.06979822550687 -10.085873102640747 -10.500877487811627 0 0 0
1141 237 1 -1.1128 3.9445023194650974 -5.855387476377913 -10.853462121138516 0 0 0
512 27 2 0.5564 2.6843552791972654 -9.58068668243842 -10.657597877310474 0 0 0
553 41 1 -1.1128 1.9198973134791044 -7.666061633283237 -10.827096403009863 0 0 0
555 41 2 0.5564 2.741223881162856 -7.206198140687824 -10.653372194217129 0 0 0
616 62 1 -1.1128 7.53046581158109 -4.5928279505878695 -11.542646771960966 0 0 0
487 19 1 -1.1128 4.059994184461789 -1.707542100086602 -13.265750371529698 0 0 0
511 27 1 -1.1128 3.1390698037692624 -10.256494646023187 -11.16034091480459 0 0 0
697 89 1 -1.1128 1.0432839144660415 -10.977105215760186 -5.562120729247589 0 0 0
1051 207 1 -1.1128 -2.665873472799083 -2.3188186792611623 -10.871484533076748 0 0 0
1243 271 1 -1.1128 1.6897633923606667 -2.5297765758121287 -11.762852338835748 0 0 0
1076 215 2 0.5564 -1.702671928493045 -0.6452932893568197 -10.910910200331278 0 0 0
488 19 2 0.5564 3.3557946047292573 -1.5294607001338294 -12.642354980773487 0 0 0
1164 244 2 0.5564 3.3857599358832626 -3.552464403009684 -7.8349013352598895 0 0 0
721 97 1 -1.1128 -0.38819616482539476 -8.70571596884954 -3.638906019223746 0 0 0
446 5 2 0.5564 1.9393440440071912 -8.210849706761337 -12.768229604268251 0 0 0
546 38 2 0.5564 -7.364104181413357 -1.3087123608073392 -14.132753773484993 0 0 0
698 89 2 0.5564 0.7843798993970695 -10.149241923646663 -5.157345090702788 0 0 0
1296 288 2 0.5564 -3.5390570793830416 -1.2678974478874099 -3.013546222834197 0 0 0
709 93 1 -1.1128 -7.144453293523533 -11.650788964042736 -6.199780130672302 0 0 0
737 102 2 0.5564 -2.895566543511108 -0.9830327941049934 -8.034154208272394 0 0 0
723 97 2 0.5564 -0.3093439462240243 -7.751776645545438 -3.6426857861652464 0 0 0
743 104 2 0.5564 2.7741471246538882 -6.038394756924739 -7.237006005495397 0 0 0
742 104 1 -1.1128 2.3993255556063233 -6.724878067708855 -7.788804342006185 0 0 0
450 6 2 0.5564 3.7655853838627045 -10.325047285748324 -12.584461393888272 0 0 0
1185 251 2 0.5564 1.0051583470481171 -0.7742522667046295 -6.186857220711021 0 0 0
1145 238 2 0.5564 9.08759357130678 -8.325838826069731 -7.78633008409712 0 0 0
1183 251 1 -1.1128 0.9145305720028394 -1.7212217108806467 -6.293007370690033 0 0 0
510 26 2 0.5564 0.7953294546459823 -9.44213461282539 -13.824204493771065 0 0 0
471 13 2 0.5564 7.133999557610829 -2.7281599164429196 -13.917042956551168 0 0 0
441 3 2 0.5564 -2.6281459437535317 -11.258051781679365 -13.914853335754087 0 0 0
472 14 1 -1.1128 3.943817368625813 -6.1719436030652854 -13.611724056358907 0 0 0
473 14 2 0.5564 3.6954696128840556 -6.039221365719692 -12.696879114926627 0 0 0
1034 201 2 0.5564 0.9806271121136644 -11.363282072852346 -13.902964712458978 0 1 0
658 76 1 -1.1128 3.1779675377418486 -11.488543146275584 -7.324082279790322 0 0 0
1132 234 1 -1.1128 -8.966212543006568 -0.5566721976197039 -11.085990639878709 0 0 0
700 90 1 -1.1128 3.7036392164304277 -11.984052628509906 -4.332720946828205 0 0 0
699 89 2 0.5564 0.3321366094497152 -11.179813298901772 -6.16991315035268 0 0 0
1213 261 1 -1.1128 0.3574046472305045 -0.24710833300586013 -3.313267944935134 0 0 0
663 77 2 0.5564 8.054218728995952 -10.35706860367516 -10.93518810500619 0 0 0
477 15 2 0.5564 7.31235189808961 -6.414636794690576 -13.771883190002868 -1 0 0
1215 261 2 0.5564 0.20902029640339806 -1.1899517013986833 -3.2407329828117644 0 0 0
1214 261 2 0.5564 1.2411189379297602 -0.11610558841534513 -2.9695820114541123 0 0 0
740 103 2 0.5564 11.0371619027763 -10.292941382246699 -2.169740955488615 0 0 0
469 13 1 -1.1128 7.939572855087736 -2.277831127891386 -13.663098963076164 0 0 0
1390 320 1 -1.1128 3.259747281835491 -0.17099256251897466 -2.603146083914544 0 0 0
464 11 2 0.5564 6.733485531570253 -8.748354238543435 -13.841418513520697 0 0 0
644 71 2 0.5564 -10.80718352345344 -11.733910288345113 -11.992539196146602 0 0 0
543 37 2 0.5564 -9.154774340219703 -7.367618388458052 -13.805318497562846 0 0 0
995 188 2 0.5564 8.761961321527036 -1.6063764229786497 -10.757938644156683 0 0 0
438 2 2 0.5564 -10.686802883180125 -11.577095360923343 -13.931677409366033 0 0 0
1462 0 3 1.1 8.221413784152817 -0.05561129393453716 -12.979800870126379 0 0 0
449 6 2 0.5564 4.846953313382807 -10.976339822247386 -13.420138783944799 0 0 0
727 99 1 -1.1128 -11.553441252019123 -5.9166212720012386 -6.435200054859469 0 0 0
579 49 2 0.5564 9.26551445569744 -11.516014344744677 -5.9516079630521 0 0 0
1230 266 2 0.5564 6.9251144036130885 -7.480246865496974 -7.173419469948288 0 0 0
1227 265 2 0.5564 4.949013555640725 -2.7364756672805526 -3.7677012059864166 0 0 0
994 188 1 -1.1128 9.34889887760013 -0.9832000034208387 -11.18617609861209 0 0 0
1332 300 2 0.5564 11.900641016501817 -8.756263053029983 -3.985903155659491 0 0 0
439 3 1 -1.1128 -1.928653095834447 -11.899362271738324 -13.78969877334488 0 0 0
522 30 2 0.5564 11.366824915700638 -11.07082871216247 -13.859045717234311 -1 0 0
1155 241 2 0.5564 -6.0022060039447185 -0.29158438733103864 -12.99352185817287 0 0 0
474 14 2 0.5564 4.490452900774297 -6.957624696526352 -13.60044635825969 0 0 0
1438 336 1 -1.1128 -7.2700390003591915 -2.8291114662391266 -0.255588061372389 1 0 0
1159 243 1 -1.1128 3.8327752720413755 -3.1005491268028673 -9.86768999300076 0 0 0
535 35 1 -1.1128 8.05730944600259 -10.021036346791151 -13.766091733302877 0 0 0
1160 243 2 0.5564 4.155176164757089 -2.2397740370972725 -10.134816183454504 0 0 0
744 104 2 0.5564 3.136679894244148 -7.30169279018213 -7.988366991549386 0 0 0
448 6 1 -1.1128 4.0726074220736095 -10.417559200234344 -13.486354384350351 0 0 0
973 181 1 -1.1128 5.721690220467385 -0.687345127108006 -7.328201720448988 0 0 0
536 35 2 0.5564 7.371733550268569 -10.688648404836146 -13.743470857913094 0 0 0
466 12 1 -1.1128 5.805755944320099 -3.695351853747852 -13.648218156379428 0 0 0
534 34 2 0.5564 4.2455393106518375 -10.113211431404471 -8.490528445379518 0 0 0
786 118 2 0.5564 5.339437204840159 -10.19186364157025 -1.9779534924223108 0 0 0
1317 295 2 0.5564 -6.426005602026349 -0.8265670675935193 -2.708780469194154 0 0 0
848 139 2 0.5564 7.536537036225592 -5.099272138319774 -4.402338237224931 0 0 0
596 55 2 0.5564 6.295601391532515 -10.1476798733204 -8.173889802936209 0 0 0
518 29 2 0.5564 9.667689086470208 -7.454730991129738 -13.7850840774218 -1 0 0
1310 293 2 0.5564 10.138921940977609 -4.3680721856966525 -7.306949874771954 0 0 0
1394 321 2 0.5564 8.170650734014476 -7.255917182132869 -4.477599069934654 0 0 0
720 96 2 0.5564 5.756481362357017 -9.238387861156705 -5.718158055611112 0 0 0