LAMMPS data file via write_data, version 15 Sep 2022, timestep = 10000

4948 atoms
5 atom types
2432 bonds
1 bond types
1216 angles
1 angle types

-16.16 16.16 xlo xhi
-16.16 16.16 ylo yhi
-52.52 52.52 zlo zhi

Masses

1 15.9994
2 1.008
3 28.99
4 35.453
5 26.9815

Pair Coeffs # lj/cut/tip4p/long

1 0.185199 3.1589
2 0 0
3 0.0469 2.4299
4 0.15 4.0447
5 11.697 2.574

Bond Coeffs # harmonic

1 0 0.9572

Angle Coeffs # harmonic

1 0 104.52

Atoms # full

2 0 5 0 -14.140030091833662 -14.13971587911755 -48.385884519610826 0 0 0
4 0 5 0 -16.159590458269058 -14.139963624281098 -46.38420722264113 0 0 0
5 0 5 0 -12.120433531413083 -16.159782870680136 -48.38628859451823 0 0 0
6 0 5 0 -10.100789291406434 -14.139625745889305 -48.38631332066703 0 0 0
7 0 5 0 -10.100743160110973 -16.159820586256636 -46.38490910700422 0 0 0
8 0 5 0 -12.120395976568444 -14.139805130306588 -46.38429297959618 0 0 0
33 0 5 0 -16.1595565825224 -12.119705096857318 -48.385717525455824 0 0 0
34 0 5 0 -14.139944372812325 -10.099573677743205 -48.38557493966867 0 0 0
35 0 5 0 -14.139934496060377 -12.119691021236445 -46.383914716802266 0 0 0
36 0 5 0 -16.15947519182722 -10.099551903334449 -46.38394523644745 0 0 0
37 0 5 0 -12.120466257995925 -12.1195603520456 -48.3858035407145 0 0 0
38 0 5 0 -10.100802841932463 -10.099478086716868 -48.385916900849296 0 0 0
39 0 5 0 -10.100745024758902 -12.11958240084417 -46.384463507844764 0 0 0
40 0 5 0 -12.120375886516962 -10.099491878163409 -46.38381689314442 0 0 0
258 0 5 0 -14.139972175716371 -14.14005404003976 -44.42206050033647 0 0 0
262 0 5 0 -10.100588920852086 -14.13981682305522 -44.42275243963059 0 0 0
290 0 5 0 -14.139977518005159 -10.099471881376116 -44.42158859541312 0 0 0
293 0 5 0 -12.120249937391272 -12.119722217023384 -44.422033762787 0 0 0
294 0 5 0 -10.100548107642355 -10.099553068728182 -44.422131610768865 0 0 0
9 0 5 0 -8.080841965086746 -16.159852778179808 -48.386637388846424 0 0 0
12 0 5 0 -8.080918769490665 -14.139639331539337 -46.38516875321091 0 0 0
41 0 5 0 -8.080964211548293 -12.119490105341505 -48.38642168702916 0 0 0
44 0 5 0 -8.080907450612093 -10.099504736018748 -46.38466054537659 0 0 0
265 0 5 0 -8.080882766311241 -16.15973651602597 -44.423698460264774 0 0 0
297 0 5 0 -8.08090156272748 -12.119631649756068 -44.42311357154927 0 0 0
289 0 5 0 -16.15957342101115 -12.119791464597705 -44.42219153802709 0 0 0
1 0 5 0 -16.159709346161165 -16.159846394357764 -48.38609577964693 0 0 0
3 0 5 0 -14.140013650004983 -16.159944610345086 -46.384371054121985 0 0 0
10 0 5 0 -6.060892219100356 -14.139653884538317 -48.386796548536935 0 0 0
11 0 5 0 -6.060828054113033 -16.15986059156793 -46.38561023561757 0 0 0
14 0 5 0 -2.0205364232269845 -14.139806137586534 -48.38717290365717 0 0 0
16 0 5 0 -4.040738520387438 -14.139748129052707 -46.38578305154274 0 0 0
42 0 5 0 -6.060942278497776 -10.09946383172579 -48.38648473958629 0 0 0
43 0 5 0 -6.060944442719093 -12.119523599685463 -46.385243814493364 0 0 0
45 0 5 0 -4.04081230122169 -12.11953544456829 -48.38681776397891 0 0 0
46 0 5 0 -2.020648591825167 -10.099497756565292 -48.38692758723134 0 0 0
47 0 5 0 -2.0204960243002836 -12.119587920524024 -46.38588395990373 0 0 0
48 0 5 0 -4.040780377921855 -10.09941249940973 -46.385308186955875 0 0 0
266 0 5 0 -6.060967412906824 -14.139769040700044 -44.42399040337354 0 0 0
270 0 5 0 -2.0201974275169037 -14.139935520825853 -44.425074067634554 0 0 0
298 0 5 0 -6.060953233335238 -10.099395614311087 -44.4233194892445 0 0 0
301 0 5 0 -4.04075287214643 -12.119617978957947 -44.42428742999209 0 0 0
302 0 5 0 -2.020373256555953 -10.09934518964175 -44.424343735884925 0 0 0
49 0 5 0 -0.000305130578288628 -12.119648883418211 -48.38727655190218 0 0 0
52 0 5 0 -0.0002592327396353465 -10.099474295183652 -46.38592614515924 0 0 0
269 0 5 0 -4.040579158402021 -16.159959232384086 -44.42467631301249 0 0 0
18 0 5 0 2.0200969943658995 -14.139959816329766 -48.387551072216986 0 0 0
20 0 5 0 -5.640738342115219e-05 -14.139920272954422 -46.38639210600735 0 0 0
22 0 5 0 6.060650471675126 -14.140068219402735 -48.387309062396966 0 0 0
24 0 5 0 4.04035927672218 -14.140143531890585 -46.386328715887466 0 0 0
50 0 5 0 2.019931708183631 -10.099609282627393 -48.387340575895124 0 0 0
51 0 5 0 2.020095285228787 -12.119802239948772 -46.38627419369159 0 0 0
53 0 5 0 4.040352629221447 -12.119820177453525 -48.387403429513746 0 0 0
54 0 5 0 6.060611062075679 -10.099719963337346 -48.386955514128786 0 0 0
55 0 5 0 6.060434720541923 -12.120094640797104 -46.38598764088854 0 0 0
56 0 5 0 4.04008854037733 -10.099723787875552 -46.386077248297674 0 0 0
274 0 5 0 2.0202579136469225 -14.14019929536311 -44.42512983295705 0 0 0
278 0 5 0 6.060298100246683 -14.140393846481162 -44.42453055354697 0 0 0
305 0 5 0 3.751242080160618e-06 -12.119847793076552 -44.42505366313348 0 0 0
306 0 5 0 2.0199564621483215 -10.0995328129924 -44.42470688632667 0 0 0
309 0 5 0 4.040152099712601 -12.120163163256105 -44.42487230643679 0 0 0
310 0 5 0 6.060125353501653 -10.099933082469988 -44.42486345913012 0 0 0
26 0 5 0 10.100894410466665 -14.140032194761694 -48.38658361793628 0 0 0
28 0 5 0 8.08065538654279 -14.140262604137854 -46.38564597320914 0 0 0
29 0 5 0 12.12074074770683 16.159988606603847 -48.386407408883656 0 -1 0
30 0 5 0 14.140658939370525 -14.13988715699946 -48.385990847257716 0 0 0
32 0 5 0 12.12075596676515 -14.140167131929363 -46.38472542095999 0 0 0
57 0 5 0 8.08087435611817 -12.119912005286016 -48.38678148434897 0 0 0
58 0 5 0 10.101008699375345 -10.099751271371476 -48.38627266778978 0 0 0
59 0 5 0 10.100889870995195 -12.12009886448614 -46.385082639363 0 0 0
60 0 5 0 8.080716727939787 -10.099886959085516 -46.38546678498129 0 0 0
61 0 5 0 12.120925729142593 -12.11985363636724 -48.38611000471286 0 0 0
62 0 5 0 14.140823043647503 -10.099672677359619 -48.38584706251914 0 0 0
63 0 5 0 14.140759755237474 -12.119845162750783 -46.38436579112934 0 0 0
64 0 5 0 12.121039618127353 -10.099720409094383 -46.38459535496483 0 0 0
282 0 5 0 10.100605555729272 -14.140463176187687 -44.42353170853063 0 0 0
286 0 5 0 14.140669276483893 -14.140150072125138 -44.42269796875106 0 0 0
313 0 5 0 8.080463938988464 -12.120369116981443 -44.42437908941451 0 0 0
314 0 5 0 10.100900684447925 -10.09990122305907 -44.42380142265586 0 0 0
317 0 5 0 12.120935346733175 -12.120058446772312 -44.42314189435337 0 0 0
318 0 5 0 14.140931028998297 -10.099644080169167 -44.42239879271024 0 0 0
65 0 5 0 -16.159442413705396 -8.07963811481666 -48.38571096600284 0 0 0
66 0 5 0 -14.139861409799083 -6.059747556542641 -48.38562420230665 0 0 0
67 0 5 0 -14.13992988235248 -8.079504550415578 -46.38362778400252 0 0 0
68 0 5 0 -16.159482665228904 -6.059629942567976 -46.38384068229539 0 0 0
69 0 5 0 -12.120372565932282 -8.079572267593962 -48.38559925874776 0 0 0
70 0 5 0 -10.100619877665984 -6.059649109409395 -48.38561343048866 0 0 0
71 0 5 0 -10.1007043697449 -8.079563704098838 -46.38396856567184 0 0 0
72 0 5 0 -12.12037778377089 -6.05974783636182 -46.383600491798404 0 0 0
97 0 5 0 -16.159444938564203 -4.039964733750123 -48.385963221340155 0 0 0
98 0 5 0 -14.139829456477214 -2.0201769922335613 -48.38570009142449 0 0 0
99 0 5 0 -14.140051808304971 -4.039970379652978 -46.38366958438178 0 0 0
101 0 5 0 -12.120217227990087 -4.03990487212668 -48.385455236816654 0 0 0
102 0 5 0 -10.100402088960385 -2.020061590974905 -48.385249756386955 0 0 0
103 0 5 0 -10.100576099454775 -4.040000393622131 -46.38359801175456 0 0 0
104 0 5 0 -12.12037821630304 -2.0202334867265166 -46.383544168634444 0 0 0
321 0 5 0 -16.159539627330357 -8.079378738098299 -44.421521319100115 0 0 0
322 0 5 0 -14.140103623605574 -6.05956428008102 -44.42105688310083 0 0 0
325 0 5 0 -12.120347785694708 -8.079456642515716 -44.421276601279956 0 0 0
326 0 5 0 -10.100625160008093 -6.059883243492489 -44.42147911498095 0 0 0
353 0 5 0 -16.15964481669513 -4.039892884819358 -44.42110206293713 0 0 0
354 0 5 0 -14.140281403881412 -2.0204185118748663 -44.421142808333535 0 0 0
357 0 5 0 -12.120600644311374 -4.040115311127827 -44.42121940478454 0 0 0
358 0 5 0 -10.100615015543621 -2.0202787458674725 -44.421615383674066 0 0 0
73 0 5 0 -8.0809006526291 -8.079496242170348 -48.386031165407104 0 0 0
76 0 5 0 -8.080749651465986 -6.059732308423851 -46.384127222278856 0 0 0
105 0 5 0 -8.080676980898483 -4.039721989709826 -48.385516923465985 0 0 0
108 0 5 0 -8.0804653838002 -2.0200156170009245 -46.383608424833206 0 0 0
329 0 5 0 -8.080724571279125 -8.07963779759027 -44.42242327041022 0 0 0
361 0 5 0 -8.080514485540586 -4.040201674145825 -44.42190571164307 0 0 0
129 0 5 0 -16.159561077353196 -0.0003649572178668052 -48.38591917580726 0 0 0
131 0 5 0 -14.139996096243877 -0.0005296589678191048 -46.383830884063066 0 0 0
133 0 5 0 -12.120090879722063 -0.0003536538181651275 -48.385451081997815 0 0 0
135 0 5 0 -10.10036291218336 -0.00024304266534836775 -46.383564903905025 0 0 0
389 0 5 0 -12.120492713122434 -0.00044055579506656106 -44.421534900599596 0 0 0
137 0 5 0 -8.080479695207854 -0.0002159833185024182 -48.38539095901836 0 0 0
100 0 5 0 -16.159587865926518 -2.0202935853767476 -46.383974959763854 0 0 0
385 0 5 0 -16.159664055038203 -0.0007522862880880259 -44.421597609795484 0 0 0
74 0 5 0 -6.060836901281082 -6.059508756650923 -48.38607962297764 0 0 0
75 0 5 0 -6.0608129880703565 -8.07951867591575 -46.384824595527206 0 0 0
77 0 5 0 -4.040820006960208 -8.079467915870753 -48.386614591176176 0 0 0
78 0 5 0 -2.0206847773590777 -6.0594507276622105 -48.386831517933196 0 0 0
79 0 5 0 -2.020525370988893 -8.079383255176735 -46.385502179745515 0 0 0
80 0 5 0 -4.0405604105907065 -6.059546001968767 -46.38497207909295 0 0 0
106 0 5 0 -6.060634844437787 -2.0198246016680272 -48.38559584493574 0 0 0
107 0 5 0 -6.060549804351072 -4.039762894699899 -46.38417877136038 0 0 0
109 0 5 0 -4.040723976937974 -4.039521219271492 -48.38617255408007 0 0 0
110 0 5 0 -2.0206084734965515 -2.0196015828172174 -48.38629593551447 0 0 0
111 0 5 0 -2.0204324652205727 -4.03958185315094 -46.38504164563026 0 0 0
112 0 5 0 -4.040388739597177 -2.0197499586596126 -46.38425880440855 0 0 0
330 0 5 0 -6.060487883299271 -6.0598262193600165 -44.422722155839644 0 0 0
333 0 5 0 -4.0405954331995355 -8.079287629981653 -44.423447224853945 0 0 0
334 0 5 0 -2.0202428554932848 -6.059447259029713 -44.423460896379815 0 0 0
362 0 5 0 -6.060178391951957 -2.0199743650624193 -44.422074101459906 0 0 0
365 0 5 0 -4.0401645379191695 -4.039945300363947 -44.42276742286133 0 0 0
366 0 5 0 -2.020183472090324 -2.0199152369774125 -44.4226487842327 0 0 0
81 0 5 0 -0.0004694989898238567 -8.07950344539796 -48.38717926637973 0 0 0
84 0 5 0 -0.0004475369672384056 -6.059435118322491 -46.38573353716668 0 0 0
113 0 5 0 -0.0005450451789656284 -4.039439853784493 -48.38692368033914 0 0 0
116 0 5 0 -0.00046872967199589017 -2.019689390842779 -46.384959367322274 0 0 0
369 0 5 0 -0.00032808868012584104 -4.03979798025361 -44.42338338157854 0 0 0
337 0 5 0 -0.00021117464787067357 -8.079159975603078 -44.424202206589804 0 0 0
82 0 5 0 2.0197383297929195 -6.059473665696613 -48.38724778990893 0 0 0
83 0 5 0 2.0197520026209945 -8.07945687472179 -46.38603568192475 0 0 0
85 0 5 0 4.040191314400087 -8.079569806874167 -48.38717425686765 0 0 0
86 0 5 0 6.060459975681611 -6.059536734647799 -48.386760893521455 0 0 0
87 0 5 0 6.060271258501386 -8.079587748555081 -46.38571384606286 0 0 0
88 0 5 0 4.039809560615628 -6.059468785437218 -46.38589486568475 0 0 0
114 0 5 0 2.019645119724087 -2.0195470348106603 -48.38670799887379 0 0 0
115 0 5 0 2.0195420888915767 -4.039542621713605 -46.38566223954525 0 0 0
117 0 5 0 4.040002506581886 -4.039496172278575 -48.386925227102 0 0 0
118 0 5 0 6.060242746499319 -2.0197031651594135 -48.386548090198254 0 0 0
119 0 5 0 6.060122948995671 -4.039579966889805 -46.38534073452136 0 0 0
120 0 5 0 4.0397298893290285 -2.019708431693294 -46.3852725565678 0 0 0
338 0 5 0 2.019527159286147 -6.0593486474065195 -44.424180775459014 0 0 0
341 0 5 0 4.039677944742156 -8.079364719188895 -44.424669388255374 0 0 0
342 0 5 0 6.059723201839219 -6.059490496514985 -44.42427928920729 0 0 0
370 0 5 0 2.019489686234546 -2.0200246092904948 -44.42331389720334 0 0 0
373 0 5 0 4.039376424838416 -4.039695490249591 -44.42401565537903 0 0 0
374 0 5 0 6.059872331201211 -2.0198140203848602 -44.423668193239706 0 0 0
89 0 5 0 8.08082526636079 -8.079621412382394 -48.386466741813656 0 0 0
90 0 5 0 10.100916931430612 -6.059670988348096 -48.38622590484123 0 0 0
91 0 5 0 10.101017384096494 -8.079596298596028 -46.38489119245938 0 0 0
92 0 5 0 8.080621048977378 -6.059520829019086 -46.385100697444976 0 0 0
93 0 5 0 12.121005973514634 -8.079669769887047 -48.386049240221496 0 0 0
94 0 5 0 14.14087832618953 -6.059767776126251 -48.38603847674658 0 0 0
95 0 5 0 14.140956804246148 -8.079509915904271 -46.384183284459596 0 0 0
96 0 5 0 12.121174504130476 -6.0595787464295086 -46.38455604298881 0 0 0
121 0 5 0 8.08064017066633 -4.03968109227065 -48.3864213604324 0 0 0
122 0 5 0 10.100767236174983 -2.0199477135664696 -48.386291550908844 0 0 0
123 0 5 0 10.100939076364812 -4.039726858870746 -46.38480456215343 0 0 0
124 0 5 0 8.080476100695472 -2.0198331854628258 -46.38500390716092 0 0 0
125 0 5 0 12.120928624077024 -4.039884336094103 -48.38623767235461 0 0 0
126 0 5 0 14.140764245753136 -2.020138476489978 -48.38617162381782 0 0 0
127 0 5 0 14.140957652892313 -4.039890826337952 -46.384277207635684 0 0 0
128 0 5 0 12.121014913870809 -2.020148081563173 -46.384611910582244 0 0 0
345 0 5 0 8.080492069374701 -8.079702240091889 -44.424272741031444 0 0 0
346 0 5 0 10.101164212689048 -6.059418315330563 -44.42336347355604 0 0 0
349 0 5 0 12.12128660598987 -8.079413580732135 -44.42290056906549 0 0 0
350 0 5 0 14.141025800897587 -6.059404378039096 -44.42176334390691 0 0 0
377 0 5 0 8.08045259444058 -4.0395370860575 -44.42356423651427 0 0 0
378 0 5 0 10.10095343712839 -2.019995165037496 -44.42317965799883 0 0 0
381 0 5 0 12.12135300974621 -4.039727856250901 -44.4225185147042 0 0 0
382 0 5 0 14.140857259020475 -2.0204062765447857 -44.42171960126486 0 0 0
155 0 5 0 10.100691082348696 -0.00018005968962642158 -46.38480470056853 0 0 0
157 0 5 0 12.120762537299392 -0.00020605418808320442 -48.3861408042515 0 0 0
159 0 5 0 14.140711274129675 -0.0005453391862058152 -46.38425982905649 0 0 0
413 0 5 0 12.120834257692529 -0.0007022598112591486 -44.422623640079046 0 0 0
130 0 5 0 -14.139832951272528 2.019516482389901 -48.385710986782016 0 0 0
132 0 5 0 -16.15963338902914 2.0193296609198454 -46.38417526844548 0 0 0
134 0 5 0 -10.100271850132875 2.0195396524424534 -48.385551529455014 0 0 0
136 0 5 0 -12.12012309071932 2.0195101564285136 -46.38386094746935 0 0 0
162 0 5 0 -14.139935258967038 6.0596386085789264 -48.38588675487315 0 0 0
163 0 5 0 -14.139845153314582 4.039507361433684 -46.384241844430605 0 0 0
164 0 5 0 -16.159723559644085 6.059819660740161 -46.384406210807654 0 0 0
165 0 5 0 -12.120056611109604 4.039506734084886 -48.385754786097685 0 0 0
166 0 5 0 -10.100259409857271 6.059521401818893 -48.385955024447526 0 0 0
167 0 5 0 -10.10015412555391 4.0395740951024806 -46.38416178945562 0 0 0
168 0 5 0 -12.120073057229238 6.059643788045924 -46.38433829035042 0 0 0
386 0 5 0 -14.140039831066828 2.019355971642357 -44.421973905193134 0 0 0
390 0 5 0 -10.100147787220683 2.0198675321268404 -44.4219279412943 0 0 0
417 0 5 0 -16.15954535237886 4.039463926473929 -44.42272695148111 0 0 0
418 0 5 0 -14.139909912364606 6.059783277378478 -44.42265941712536 0 0 0
421 0 5 0 -12.120133825657813 4.039598466060004 -44.422257474251175 0 0 0
422 0 5 0 -10.100102750003659 6.059497591433884 -44.42252949695978 0 0 0
393 0 5 0 -8.080152142560339 0.0001356857300000743 -44.42192556577246 0 0 0
199 0 5 0 -10.100277287303438 8.079583823866724 -46.38449799308618 0 0 0
169 0 5 0 -8.080385574140346 4.039502707871958 -48.385983965211885 0 0 0
197 0 5 0 -12.120161786386207 8.079658714244855 -48.386052492295114 0 0 0
201 0 5 0 -8.080426428221402 8.079485853597555 -48.38615221759185 0 0 0
140 0 5 0 -8.080222960695986 2.019800890057807 -46.38402551266585 0 0 0
161 0 5 0 -16.159712335090422 4.0395817666539315 -48.38576703425888 0 0 0
172 0 5 0 -8.080161598362903 6.059440773765977 -46.384530232334505 0 0 0
457 0 5 0 -8.080113867078312 8.07919011779304 -44.42294825324193 0 0 0
193 0 5 0 -16.15982797494454 8.079821698637389 -48.38604213012223 0 0 0
138 0 5 0 -6.060480228249178 2.0196704663019154 -48.385925972453215 0 0 0
139 0 5 0 -6.060296106514577 4.057310390288916e-05 -46.38394416547278 0 0 0
141 0 5 0 -4.040550495938134 2.84223523570226e-05 -48.385931486191055 0 0 0
142 0 5 0 -2.020442132099524 2.0198550395419543 -48.38628774447947 0 0 0
143 0 5 0 -2.02041414342668 0.00019565629100543652 -46.384443478791546 0 0 0
144 0 5 0 -4.040287011815482 2.020017320147677 -46.384479275643834 0 0 0
170 0 5 0 -6.060434179570293 6.05945646341586 -48.386421384580395 0 0 0
171 0 5 0 -6.06014854450919 4.039699188781055 -46.384606840794326 0 0 0
173 0 5 0 -4.0404244315729025 4.039577351735632 -48.38649820789604 0 0 0
174 0 5 0 -2.0203402419814065 6.059449838060503 -48.38678022341658 0 0 0
175 0 5 0 -2.020398954542003 4.039786709614094 -46.38483855101277 0 0 0
176 0 5 0 -4.040231761056298 6.059378043058122 -46.38496763418939 0 0 0
394 0 5 0 -6.059892648161606 2.0203323832868865 -44.42227085752019 0 0 0
397 0 5 0 -4.040115969409313 0.00037263987782635877 -44.42224196782823 0 0 0
398 0 5 0 -2.0204891496478634 2.0203710896271674 -44.42241230500017 0 0 0
425 0 5 0 -8.079855007611632 4.039757775780808 -44.422350033797535 0 0 0
426 0 5 0 -6.059851322888596 6.059207823471987 -44.422557941348245 0 0 0
429 0 5 0 -4.040116216781562 4.039916739221559 -44.42231995673317 0 0 0
430 0 5 0 -2.020330253379171 6.059366158619833 -44.422712338488964 0 0 0
145 0 5 0 -0.00047576377607135543 0.00020977720091516625 -48.38631712253627 0 0 0
148 0 5 0 -0.00047902533685059354 2.020054853828094 -46.38461360200599 0 0 0
180 0 5 0 -0.0003705984601091965 6.059461983574438 -46.38513028589282 0 0 0
401 0 5 0 -0.00048177769758393454 0.00015623523231953062 -44.42270487305507 0 0 0
433 0 5 0 -0.0006331311229004373 4.040041636373565 -44.422675576445016 0 0 0
203 0 5 0 -6.060237300678363 8.079215272526962 -46.384834488822264 0 0 0
205 0 5 0 -4.040438814095524 8.079353416339593 -48.38668072362362 0 0 0
207 0 5 0 -2.0202990585932006 8.079143919695037 -46.38530595862715 0 0 0
461 0 5 0 -4.039995747605634 8.078896407983969 -44.423125965149964 0 0 0
465 0 5 0 -0.00041564860823637215 8.0790221541188 -44.42352377502645 0 0 0
177 0 5 0 -0.0003211387827394822 4.0396555350455525 -48.38652410948467 0 0 0
209 0 5 0 -0.00016852414352538884 8.079400238440163 -48.3867807285677 0 0 0
146 0 5 0 2.019676205408908 2.019942401868359 -48.38635705184391 0 0 0
147 0 5 0 2.0195499317341126 0.00016909034861083927 -46.38482282374155 0 0 0
149 0 5 0 4.039859383889937 0.00018513620199436874 -48.38647158287812 0 0 0
150 0 5 0 6.0601083577435455 2.01991459986589 -48.38645178689194 0 0 0
151 0 5 0 6.060033442869305 9.88798680319042e-05 -46.38505636441842 0 0 0
152 0 5 0 4.039729840316619 2.0199905737159787 -46.38490397452156 0 0 0
178 0 5 0 2.0198577172512238 6.059554520910577 -48.38661585107875 0 0 0
179 0 5 0 2.0196278360152835 4.039811090435166 -46.38485508228772 0 0 0
181 0 5 0 4.039875426441453 4.03975103168205 -48.38648864022404 0 0 0
182 0 5 0 6.060140634350919 6.059703874783185 -48.386617482174124 0 0 0
183 0 5 0 6.059985449275523 4.039847408327643 -46.38514945677902 0 0 0
184 0 5 0 4.0398907199859 6.059683671851945 -46.385099346281955 0 0 0
402 0 5 0 2.01946814271688 2.0201583971528243 -44.42285395517234 0 0 0
405 0 5 0 4.039645398341331 2.6634024050426238e-05 -44.423366153521116 0 0 0
406 0 5 0 6.059946998801542 2.020050551527386 -44.42346656712708 0 0 0
434 0 5 0 2.0195583095617993 6.059628639879006 -44.42318492525101 0 0 0
437 0 5 0 4.039784211661202 4.03994697816936 -44.42323657993753 0 0 0
438 0 5 0 6.060091117541936 6.05980155814083 -44.42355452084204 0 0 0
441 0 5 0 8.07999615767173 4.039953856164151 -44.423565719060576 0 0 0
211 0 5 0 2.0198893874975976 8.079396203199487 -46.38525162984103 0 0 0
213 0 5 0 4.0400845983771365 8.079573892601763 -48.38668529833282 0 0 0
469 0 5 0 4.040011816276231 8.079513280043097 -44.423486854160814 0 0 0
215 0 5 0 6.060166079309102 8.079721665758022 -46.38525127935641 0 0 0
153 0 5 0 8.080467711367229 1.5139957996035077e-05 -48.386371643194494 0 0 0
188 0 5 0 8.080221042521597 6.059832332517341 -46.38522174841794 0 0 0
473 0 5 0 8.080250220890404 8.079888219910409 -44.423647566794486 0 0 0
154 0 5 0 10.100628254488694 2.019792844671594 -48.38620421674286 0 0 0
156 0 5 0 8.080294784526384 2.0198833854423004 -46.38500585777619 0 0 0
158 0 5 0 14.14054116679607 2.019609402144334 -48.38588735400317 0 0 0
160 0 5 0 12.12063150183998 2.019530497128734 -46.38443816597644 0 0 0
185 0 5 0 8.080383622838283 4.0397630154477415 -48.38644229384136 0 0 0
186 0 5 0 10.100527424559477 6.059762833584451 -48.386300261394965 0 0 0
187 0 5 0 10.100412613799872 4.039748645894635 -46.3847749404564 0 0 0
189 0 5 0 12.120570177682154 4.039691221664733 -48.38595474583099 0 0 0
190 0 5 0 14.14038489883868 6.059738074238395 -48.38586265931298 0 0 0
191 0 5 0 14.140433510716445 4.03955987073515 -46.38433192562795 0 0 0
192 0 5 0 12.120378385746813 6.0598850126909545 -46.38457797065865 0 0 0
409 0 5 0 8.080314745784293 -6.258549523371281e-06 -44.42348455341898 0 0 0
410 0 5 0 10.100351971928449 2.0195798385851127 -44.42316466037591 0 0 0
414 0 5 0 14.140689568878862 2.0192009008732223 -44.422460474280406 0 0 0
442 0 5 0 10.100016298916065 6.060082019072242 -44.423424014912435 0 0 0
445 0 5 0 12.120384736972083 4.039626878938164 -44.42297280529057 0 0 0
446 0 5 0 14.140438188402229 6.059961579607097 -44.42301001622634 0 0 0
217 0 5 0 8.080386673298534 8.079777826185147 -48.38660721249332 0 0 0
221 0 5 0 12.120511706894112 8.07985809694725 -48.38620848606991 0 0 0
257 0 5 0 -16.159651944527106 16.15978832937009 -44.422242010063584 0 -1 0
261 0 5 0 -12.12031503621713 16.159931253960576 -44.42237408568347 0 -1 0
194 0 5 0 -14.140056864265912 10.09986061515865 -48.38626427985301 0 0 0
195 0 5 0 -14.139990586477118 8.079946050607859 -46.38451140976784 0 0 0
196 0 5 0 -16.159818855010965 10.100149319146908 -46.38462441090552 0 0 0
198 0 5 0 -10.100390991856779 10.099645267491383 -48.386175103586424 0 0 0
200 0 5 0 -12.120310824262956 10.099915742866681 -46.384691607397556 0 0 0
226 0 5 0 -14.140087568976622 14.140110765250437 -48.38632395112345 0 0 0
227 0 5 0 -14.140123562941824 12.120096807010452 -46.384753408573005 0 0 0
229 0 5 0 -12.120307205726515 12.119904167782249 -48.3863648072245 0 0 0
230 0 5 0 -10.100605868176457 14.139985933425622 -48.386484769489684 0 0 0
231 0 5 0 -10.100573568629551 12.119916317235331 -46.384856397113424 0 0 0
232 0 5 0 -12.120410576511507 14.140095977360978 -46.38477509290696 0 0 0
449 0 5 0 -16.159679766587626 8.080245805147447 -44.42272756573303 0 0 0
450 0 5 0 -14.140059864845561 10.100318054924255 -44.4226459433403 0 0 0
453 0 5 0 -12.120262311997646 8.079916046375603 -44.4227343073999 0 0 0
454 0 5 0 -10.100575952061575 10.099869922111205 -44.423055747804014 0 0 0
481 0 5 0 -16.159737279452393 12.120240545756849 -44.42252525306683 0 0 0
482 0 5 0 -14.140032227261944 14.13995920327494 -44.42242848729021 0 0 0
485 0 5 0 -12.120542797682846 12.120157936999822 -44.42287619968385 0 0 0
486 0 5 0 -10.100768458836965 14.140143650802877 -44.42307768474381 0 0 0
204 0 5 0 -8.080463273897932 10.099517029865067 -46.38473217263192 0 0 0
233 0 5 0 -8.08062882732797 12.119651045558223 -48.38640539516705 0 0 0
236 0 5 0 -8.080814273810386 14.139973938248293 -46.38520120379973 0 0 0
489 0 5 0 -8.080707310782653 12.119925739560884 -44.42345046756061 0 0 0
228 0 5 0 -16.159774063734158 14.140061269069546 -46.38456522389144 0 0 0
225 0 5 0 -16.159821932032223 12.120037023225478 -48.386369837045386 0 0 0
13 0 5 0 -4.0406878588889255 16.159980289840867 -48.3870124347487 0 -1 0
15 0 5 0 -2.020339371786959 16.159918266966766 -46.386146806252015 0 -1 0
202 0 5 0 -6.060555621428595 10.09941294306942 -48.386393557757124 0 0 0
206 0 5 0 -2.0203218408662216 10.099333402906638 -48.38679790592498 0 0 0
208 0 5 0 -4.040320435198543 10.099156209887775 -46.385267161602684 0 0 0
234 0 5 0 -6.060746754778893 14.139770097881334 -48.38669177402057 0 0 0
235 0 5 0 -6.060626116499602 12.119552662865015 -46.38522838513825 0 0 0
237 0 5 0 -4.040542603435764 12.119444732119762 -48.38667225977843 0 0 0
238 0 5 0 -2.0203914520453585 14.139584307403503 -48.387046843045766 0 0 0
239 0 5 0 -2.0202010145000893 12.119361887900505 -46.38564308792301 0 0 0
240 0 5 0 -4.04053291513067 14.139747773538115 -46.385761381790246 0 0 0
458 0 5 0 -6.060194260021679 10.099211292748576 -44.42354426065841 0 0 0
462 0 5 0 -2.0201500096595892 10.098921203748867 -44.423902779026804 0 0 0
490 0 5 0 -6.060707473483011 14.140030509682104 -44.42427244284079 0 0 0
493 0 5 0 -4.040291851396309 12.11943514461706 -44.424404240846044 0 0 0
494 0 5 0 -2.020169577809985 14.13982685198132 -44.42483435106126 0 0 0
17 0 5 0 -0.00017237659073288632 16.15979584557198 -48.387374704842394 0 -1 0
212 0 5 0 -0.00014672720474899004 10.099249690252151 -46.3854839294775 0 0 0
273 0 5 0 0.00019206489449997212 16.159998737189834 -44.425184616118244 0 -1 0
19 0 5 0 2.020263718274657 16.15978976835865 -46.38639237773612 0 -1 0
21 0 5 0 4.040401574144062 16.159754029376238 -48.38750383083897 0 -1 0
23 0 5 0 6.060510721352667 16.159733293011683 -46.3859946733565 0 -1 0
277 0 5 0 4.040400610269362 16.15978168474729 -44.42468903664588 0 -1 0
210 0 5 0 2.020051186795132 10.099436131783031 -48.38678545868747 0 0 0
214 0 5 0 6.060334462944199 10.099658498838394 -48.386737696399926 0 0 0
216 0 5 0 4.040207157693873 10.099536994190231 -46.385342215020216 0 0 0
241 0 5 0 -0.00012008403248522177 12.119403611583426 -48.38699057946325 0 0 0
242 0 5 0 2.0201322634139807 14.139540905676391 -48.38727482888479 0 0 0
243 0 5 0 2.0201136615141633 12.119510062352495 -46.38570219178112 0 0 0
244 0 5 0 -1.6942385634821365e-06 14.139609910914839 -46.38602828012082 0 0 0
245 0 5 0 4.040304100192154 12.119514470031557 -48.38692177867582 0 0 0
246 0 5 0 6.060544018650137 14.139646890388008 -48.38715100488934 0 0 0
247 0 5 0 6.060488878758651 12.119745823583662 -46.38545396539615 0 0 0
248 0 5 0 4.04042095986903 14.139717015475213 -46.38598545163787 0 0 0
466 0 5 0 2.019918672891658 10.099294505729025 -44.424009797267914 0 0 0
470 0 5 0 6.060395555893298 10.09971598308103 -44.42367473601849 0 0 0
497 0 5 0 9.095833648987698e-06 12.119415634853949 -44.424341743910425 0 0 0
498 0 5 0 2.0203185271455366 14.13988716606278 -44.4247151157412 0 0 0
501 0 5 0 4.040332500208456 12.119826817172685 -44.4242735554217 0 0 0
502 0 5 0 6.060462574307452 14.139932097944623 -44.42400035758638 0 0 0
281 0 5 0 8.080393868319778 16.159688844002574 -44.42394604604022 0 -1 0
25 0 5 0 8.08074745510767 16.159800836690913 -48.38700073390869 0 -1 0
27 0 5 0 10.10067179218394 16.159763593730723 -46.3851988374187 0 -1 0
31 0 5 0 14.140540336672258 16.159888773844248 -46.38450563530528 0 -1 0
285 0 5 0 12.120538331498084 16.159624439091434 -44.422898675795906 0 -1 0
218 0 5 0 10.100539763778668 10.099879457436543 -48.38658688504416 0 0 0
219 0 5 0 10.100363838096152 8.080019272806847 -46.3850685831962 0 0 0
220 0 5 0 8.080396784732843 10.099908152949691 -46.385251254844206 0 0 0
222 0 5 0 14.140379155996426 10.099965308504112 -48.38627279670491 0 0 0
223 0 5 0 14.1403392840585 8.080107354329556 -46.384533909540906 0 0 0
224 0 5 0 12.120433940929805 10.100154212553269 -46.38489008263659 0 0 0
249 0 5 0 8.080549194006734 12.119754642975657 -48.38684685136554 0 0 0
250 0 5 0 10.100689973453601 14.139870230883995 -48.38670181818671 0 0 0
251 0 5 0 10.10049518112669 12.119959434970854 -46.38515869216853 0 0 0
252 0 5 0 8.08054325207581 14.139759797870148 -46.38546798045566 0 0 0
253 0 5 0 12.12056830225232 12.119986490713874 -48.386501497401966 0 0 0
254 0 5 0 14.140489883647739 14.140072015458664 -48.38637167554887 0 0 0
255 0 5 0 14.140427157786753 12.120148721827713 -46.38474726023914 0 0 0
256 0 5 0 12.120603284999943 14.13994300356551 -46.38490119987605 0 0 0
474 0 5 0 10.100295239545567 10.100187615847226 -44.423343860603026 0 0 0
477 0 5 0 12.120153466961035 8.080380776931587 -44.42318249828837 0 0 0
478 0 5 0 14.140350739376983 10.100446888166081 -44.42279364985347 0 0 0
505 0 5 0 8.080488061140274 12.119931726833064 -44.42342829386933 0 0 0
506 0 5 0 10.100483554564452 14.139797097851018 -44.42339657319779 0 0 0
509 0 5 0 12.120453356789556 12.12014190322611 -44.423045952237324 0 0 0
510 0 5 0 14.140464457743553 14.139901042176266 -44.422486137050896 0 0 0
260 0 5 0 -16.159830520374282 -14.140008077880257 -42.459656680531445 0 0 0
264 0 5 0 -12.120067344333378 -14.140028109374722 -42.45975759770669 0 0 0
291 0 5 0 -14.140106156163718 -12.119856561689685 -42.459414470929445 0 0 0
292 0 5 0 -16.15974892915036 -10.09966437300901 -42.459029096008706 0 0 0
295 0 5 0 -10.100119009311712 -12.119826272444671 -42.4598166237723 0 0 0
296 0 5 0 -12.120111022121666 -10.099732610419816 -42.45911577390025 0 0 0
514 0 5 0 -14.140027073061278 -14.139910717941293 -40.456651184697755 0 0 0
516 0 5 0 -10.099603241864797 -14.139834961006212 -40.45696642056924 0 0 0
529 0 5 0 -16.159952172283734 -12.120170381126826 -40.455048740360276 0 0 0
530 0 5 0 -14.140085212706065 -10.10004890573077 -40.455937563516095 0 0 0
531 0 5 0 -12.119977683168681 -12.120217197685568 -40.45601087069216 0 0 0
532 0 5 0 -10.099597810434865 -10.10027081910975 -40.45625878998353 0 0 0
1286 2 2 0.5564 -12.285749682091359 -15.522729806425048 -36.610276409980024 0 0 0
1306 9 2 0.5564 -14.90892666069388 -12.359715464778553 -36.57260633321546 0 0 0
1308 10 1 -1.1128 -12.527006874942007 -12.712154600669226 -36.4188607079166 0 0 0
1309 10 2 0.5564 -11.826727075617239 -12.287029159064693 -36.913944945831915 0 0 0
1310 10 2 0.5564 -12.34232718655772 -12.493103869931794 -35.5055469440278 0 0 0