LAMMPS data file via write_data, version 23 Jun 2022, timestep = 200000

4948 atoms
5 atom types
2432 bonds
1 bond types
1216 angles
1 angle types

-16.16 16.16 xlo xhi
-16.16 16.16 ylo yhi
-40 40 zlo zhi

Masses

1 15.9994
2 1.008
3 28.99
4 35.453
5 26.9815

Pair Coeffs # lj/cut/tip4p/long

1 0.185199 3.1589
2 0 0
3 0.0469 2.4299
4 0.15 4.0447
5 11.697 2.574

Bond Coeffs # harmonic

1 0 0.9572

Angle Coeffs # harmonic

1 0 104.52

Atoms # full

329 0 5 0 -15.323926401948915 -10.742894756933003 -21.585725692036508 -1 0 0
73 0 5 0 -15.334321899547556 -10.830950324916195 -25.546747482389705 -1 0 0
297 0 5 0 -15.258333946623269 -14.763129665041227 -21.56665362273003 -1 0 0
44 0 5 0 -15.18930238083639 -12.783047681765382 -23.537290003523168 -1 0 0
41 0 5 0 -15.179325535058576 -14.759192233732493 -25.507399071003444 -1 0 0
298 0 5 0 -13.27226892919243 -12.806884588073256 -21.57683091688682 -1 0 0
43 0 5 0 -13.264070626552536 -14.810590778570393 -23.472828925476982 -1 0 0
75 0 5 0 -13.227291017170357 -10.765231093162106 -23.436908186641976 -1 0 0
42 0 5 0 -13.174188601601324 -12.822252429074492 -25.57045134581306 -1 0 0
77 0 5 0 -11.260305704482386 -10.73946289845914 -25.49131007877013 -1 0 0
301 0 5 0 -11.238594696017929 -14.809784272087843 -21.539741872298375 -1 0 0
48 0 5 0 -11.226931434106477 -12.815381841542905 -23.470434277271302 -1 0 0
45 0 5 0 -11.200095276575505 -14.880857260980582 -25.451277434263194 -1 0 0
333 0 5 0 -11.22158849519314 -10.762024224656413 -21.530716641037763 -1 0 0
80 0 5 0 -11.30804512429089 -8.753843125527457 -23.517446876700568 -1 0 0
330 0 5 0 -13.265097471497414 -8.692701933590564 -21.505846775784054 -1 0 0
78 0 5 0 -9.347932544880715 -8.770251006250453 -25.492743520763533 -1 0 0
334 0 5 0 -9.293932661170805 -8.772302188963186 -21.554571344792347 -1 0 0
76 0 5 0 -15.258688466352764 -8.727399043245734 -23.507614788131278 -1 0 0
74 0 5 0 -13.253803078796972 -8.85010693486978 -25.58039569601699 -1 0 0
47 0 5 0 -9.2213982313701 -14.823167918411373 -23.397822022599716 -1 0 0
302 0 5 0 -9.25121313422587 -12.721612613456397 -21.47852839898041 -1 0 0
46 0 5 0 -9.25273845348349 -12.821654056030878 -25.422244704729355 -1 0 0
79 0 5 0 -9.24568280858909 -10.752622327495976 -23.46203284072656 -1 0 0
81 0 5 0 -7.205698754089168 -10.737265160581847 -25.43662239861736 -1 0 0
52 0 5 0 -7.230471958561372 -12.826360780152767 -23.518468218528653 -1 0 0
49 0 5 0 -7.209428726435687 -14.892010189759437 -25.568786448000072 -1 0 0
305 0 5 0 -7.154539755936872 -14.794861308351365 -21.458639244916156 -1 0 0
337 0 5 0 -7.16408520919248 -10.769923051136283 -21.537842755317026 -1 0 0
50 0 5 0 -5.22682955768963 -12.882374906835603 -25.565182794166475 -1 0 0
51 0 5 0 -5.242494942585266 -14.850414439789203 -23.496371900112766 -1 0 0
306 0 5 0 -5.155585316952549 -12.82544999187143 -21.512200000719844 -1 0 0
83 0 5 0 -5.166616401240652 -10.732130199525985 -23.477259046889852 -1 0 0
53 0 5 0 -3.1926578010106854 -14.788548174865443 -25.45233021716593 -1 0 0
309 0 5 0 -3.1578843912803234 -14.851464966476717 -21.520042125740545 -1 0 0
56 0 5 0 -3.1568185041637857 -12.804399516512133 -23.422928631006297 -1 0 0
85 0 5 0 -3.037930293898779 -10.790886325728007 -25.563835178008006 -1 0 0
341 0 5 0 -3.1095640015041925 -10.763787178089407 -21.55753314218036 -1 0 0
84 0 5 0 -7.241555609553957 -8.708851615034435 -23.475792657291308 -1 0 0
82 0 5 0 -5.142913530558403 -8.75850959260915 -25.47493370759298 -1 0 0
338 0 5 0 -5.137941710380871 -8.754379247079527 -21.59112041134882 -1 0 0
88 0 5 0 -3.1025634067415506 -8.83837248125141 -23.54063021298984 -1 0 0
55 0 5 0 -1.1596422383293623 -14.82532377552738 -23.454488283239655 -1 0 0
54 0 5 0 -1.1241554681865864 -12.818024617505005 -25.43679730312428 -1 0 0
310 0 5 0 -1.092977755862309 -12.821757567919898 -21.570707208337108 -1 0 0
87 0 5 0 -1.0796960367395352 -10.825127100628052 -23.479971123187482 -1 0 0
342 0 5 0 -1.0890006973485211 -8.762179024998323 -21.503000593357413 -1 0 0
86 0 5 0 -1.0684465962037928 -8.797280730043111 -25.527173947876605 -1 0 0
57 0 5 0 0.8596032064605028 -14.755189230070828 -25.500740716378054 -1 0 0
89 0 5 0 0.8475265473375146 -10.800057620253106 -25.516618670864542 -1 0 0
60 0 5 0 0.9086037603858581 -12.8188102360022 -23.40960243910701 -1 0 0
313 0 5 0 0.903297781508078 -14.827885215326413 -21.48982499384795 -1 0 0
345 0 5 0 0.9024871740130038 -10.787671872884074 -21.455441578981016 -1 0 0
59 0 5 0 2.872353642952945 -14.79772710548982 -23.480787740275222 -1 0 0
91 0 5 0 2.828505165585937 -10.694425884483282 -23.46230047656678 -1 0 0
314 0 5 0 2.8833026926054224 -12.801275204700335 -21.584928629788227 -1 0 0
58 0 5 0 2.9164756771986005 -12.734046730861833 -25.470565397781606 -1 0 0
64 0 5 0 4.978349437962193 -12.802626408244196 -23.469238628791327 -1 0 0
317 0 5 0 4.938448153657131 -14.789613254590138 -21.459240258410105 -1 0 0
61 0 5 0 4.922000082309131 -14.832576721259333 -25.52606398945421 -1 0 0
349 0 5 0 4.908784568908724 -10.742848749917503 -21.525581119797636 -1 0 0
93 0 5 0 4.896750789726403 -10.709898928857228 -25.39855854606291 -1 0 0
96 0 5 0 4.825876834365222 -8.696518901897162 -23.489610151031467 -1 0 0
90 0 5 0 2.7913483210225873 -8.803658984185855 -25.65661958284278 -1 0 0
92 0 5 0 0.9139747916006553 -8.67945077386922 -23.491755345550793 -1 0 0
346 0 5 0 2.9004756967572822 -8.710590639150602 -21.42900848469352 -1 0 0
62 0 5 0 6.8591861869352035 -12.796782224960628 -25.618397317488636 -1 0 0
94 0 5 0 6.926034768342822 -8.740207200476517 -25.58137274212019 -1 0 0
350 0 5 0 6.894770459319848 -8.748956615251144 -21.498099343502155 -1 0 0
318 0 5 0 6.975912641586713 -12.809440221010696 -21.548219112285892 -1 0 0
63 0 5 0 6.971177219754483 -14.76964448483768 -23.50068948637417 -1 0 0
95 0 5 0 6.944392483377926 -10.729454190086768 -23.4872580684941 -1 0 0
294 0 5 0 15.017271383449277 -12.808009412218924 -21.58284565740248 -2 0 0
39 0 5 0 15.00448035768483 -14.788596094810064 -23.565495612879364 -2 0 0
38 0 5 0 15.006321804548431 -12.840493671445648 -25.46771155862308 -2 0 0
71 0 5 0 15.010763588089823 -10.797189268338492 -23.508494940735577 -2 0 0
70 0 5 0 15.05767818900183 -8.750900880022 -25.46056480431971 -2 0 0
326 0 5 0 15.00436300594302 -8.786169460453163 -21.60280670310387 -2 0 0
72 0 5 0 12.966032879928509 -8.761777445304622 -23.594207099362947 -2 0 0
322 0 5 0 10.951418606312007 -8.777649234276383 -21.530711223918026 -2 0 0
40 0 5 0 12.987905761072408 -12.776644862808642 -23.529435814006316 -2 0 0
37 0 5 0 13.01764668159634 -14.837294432136167 -25.59146369205759 -2 0 0
325 0 5 0 13.009853554755995 -10.748482382564392 -21.582357212015012 -2 0 0
293 0 5 0 13.070724796998821 -14.766049172776963 -21.517183675807846 -2 0 0
69 0 5 0 12.947565885368377 -10.771644726021997 -25.47038792149226 -2 0 0
35 0 5 0 10.998858160167845 -14.81309819753875 -23.48804391122518 -2 0 0
67 0 5 0 10.98639439949542 -10.793275939136434 -23.522466103501156 -2 0 0
290 0 5 0 10.936207301833957 -12.789363598596442 -21.5811189556825 -2 0 0
34 0 5 0 10.945990713976549 -12.786304649458527 -25.601098531051875 -2 0 0
36 0 5 0 9.012299547772571 -12.697698694596983 -23.548793033644863 -2 0 0
65 0 5 0 9.111742580745744 -10.704429067454116 -25.615735514730844 -2 0 0
33 0 5 0 8.90209073361341 -14.74320340801233 -25.53603988177421 -2 0 0
289 0 5 0 8.930976560756157 -14.771147672628267 -21.52197372568124 -2 0 0
321 0 5 0 8.89322905804724 -10.7485649041101 -21.585539231603153 -2 0 0
68 0 5 0 8.987321750924565 -8.742573086158444 -23.55355052917233 -2 0 0
66 0 5 0 11.061013107976503 -8.679677125922787 -25.677096189859547 -2 0 0
361 0 5 0 -15.307477418372061 -6.7440914266326235 -21.588530548318225 -1 0 0
105 0 5 0 -15.218375519651802 -6.704033232390617 -25.548378984983096 -1 0 0
108 0 5 0 -15.25589115245984 -4.739047451582961 -23.556138455276894 -1 0 0
137 0 5 0 -15.153386645987434 -2.652812493617443 -25.581828798403304 -1 0 0
393 0 5 0 -15.147035927177685 -2.73569908867909 -21.538176718510094 -1 0 0
362 0 5 0 -13.213262795678373 -4.784358761866288 -21.614959857493204 -1 0 0
107 0 5 0 -13.274280425311021 -6.773339969715436 -23.581583371677784 -1 0 0
106 0 5 0 -13.266123507977296 -4.702623332421606 -25.619380456961025 -1 0 0
139 0 5 0 -13.177142160459185 -2.596785195652108 -23.665080234958456 -1 0 0
397 0 5 0 -11.299739138744856 -2.670477627044178 -21.631466697036686 -1 0 0
365 0 5 0 -11.21985199228749 -6.7241410340092935 -21.49110572462174 -1 0 0
109 0 5 0 -11.233564931820196 -6.706939088999639 -25.698319768331388 -1 0 0
112 0 5 0 -11.244973417743948 -4.715793099288197 -23.596578179541375 -1 0 0
141 0 5 0 -11.212062960030826 -2.5934949851391624 -25.618927372446816 -1 0 0
143 0 5 0 -9.324761844775763 -2.646486568825926 -23.510283267564862 -1 0 0
140 0 5 0 -15.303314421072356 -0.6955858407146395 -23.536376321013773 -1 0 0
394 0 5 0 -13.282049851532461 -0.6743633240841509 -21.56030711959405 -1 0 0
144 0 5 0 -11.21825372338692 -0.5970651100477876 -23.505104065873027 -1 0 0
398 0 5 0 -9.232035281446406 -0.6626923034555341 -21.561392911690163 -1 0 0
111 0 5 0 -9.272449215087585 -6.658349949088353 -23.595933956373923 -1 0 0
366 0 5 0 -9.253693669078656 -4.670526970899962 -21.62930209029578 -1 0 0
110 0 5 0 -9.22341480677096 -4.604174233546561 -25.487041666874457 -1 0 0
142 0 5 0 -9.111326256225416 -0.6481374028879913 -25.61410580193347 -1 0 0
138 0 5 0 -13.323611797745416 -0.6545075095140168 -25.637005164166297 -1 0 0
402 0 5 0 -5.104811268787474 -0.6304505695821195 -21.56988227315748 -1 0 0
146 0 5 0 -5.20443520085492 -0.6148809139254149 -25.557180255264836 -1 0 0
406 0 5 0 -1.0721007895871306 -0.6547083583702696 -21.496390673319933 -1 0 0
113 0 5 0 -7.205618522390614 -6.786186584475882 -25.493571563495326 -1 0 0
116 0 5 0 -7.200158942748251 -4.708380105604878 -23.499640445959297 -1 0 0
369 0 5 0 -7.243209001716126 -6.681428225043312 -21.53890944962421 -1 0 0
401 0 5 0 -7.243845179160883 -2.784058829474308 -21.573451363027555 -1 0 0
145 0 5 0 -7.1674428176396345 -2.726410049398285 -25.54615320763802 -1 0 0
114 0 5 0 -5.207936048670676 -4.84538870619348 -25.631282434513057 -1 0 0
115 0 5 0 -5.187577976920909 -6.732964565806923 -23.466024988896073 -1 0 0
370 0 5 0 -5.143754693278041 -4.733515655739524 -21.52054844968998 -1 0 0
147 0 5 0 -5.176348061896184 -2.6695095874120156 -23.523757868318892 -1 0 0
149 0 5 0 -3.155611155022913 -2.6746738899750704 -25.512443172156075 -1 0 0
120 0 5 0 -3.1581006894664734 -4.776963875524298 -23.554464560977586 -1 0 0
405 0 5 0 -3.124368933266013 -2.7091600314058346 -21.579093890151448 -1 0 0
117 0 5 0 -3.06629439633199 -6.739520902853812 -25.512281193926842 -1 0 0
373 0 5 0 -3.1149830185445895 -6.816329299680648 -21.556991785582817 -1 0 0
148 0 5 0 -7.234240664608543 -0.6748403659200524 -23.525615216458736 -1 0 0
118 0 5 0 -1.1642508288469817 -4.726372891189404 -25.534250751166525 -1 0 0
374 0 5 0 -1.144082687018658 -4.682549679303302 -21.615924650075247 -1 0 0
151 0 5 0 -1.0345495238367377 -2.722829879657051 -23.528241699882077 -1 0 0
119 0 5 0 -1.092694760433543 -6.711299016186681 -23.543840374428065 -1 0 0
150 0 5 0 -1.0208258779277823 -0.7268990307027728 -25.499192345566282 -1 0 0
152 0 5 0 -3.127293233055507 -0.6010813200277123 -23.615243883610628 -1 0 0
158 0 5 0 7.017575444186838 -0.6637919354319721 -25.533219669688958 -1 0 0
160 0 5 0 4.968269379158039 -0.6549675179981609 -23.556186020865372 -1 0 0
382 0 5 0 6.865216086371623 -4.708992264089524 -21.57151996098296 -1 0 0
409 0 5 0 0.8795251395179471 -2.6998222584209453 -21.588729493822136 -1 0 0
377 0 5 0 0.8727920725553999 -6.710570692483071 -21.465686576670404 -1 0 0
153 0 5 0 0.9625620642792949 -2.7714096058246898 -25.597527888562073 -1 0 0
124 0 5 0 0.8909355865959254 -4.756894796113563 -23.5339006255382 -1 0 0
121 0 5 0 0.9030568417573384 -6.79584158117619 -25.668415252668556 -1 0 0
123 0 5 0 2.8638449810693767 -6.746646125168337 -23.490708892721372 -1 0 0
378 0 5 0 2.9011934190904367 -4.729943898365904 -21.524037856062638 -1 0 0
122 0 5 0 2.8980998182082702 -4.720495646748772 -25.59671361230493 -1 0 0
155 0 5 0 2.920674703326737 -2.736744453492812 -23.574969292946072 -1 0 0
128 0 5 0 4.863131933251338 -4.738996801144624 -23.53188948356594 -1 0 0
157 0 5 0 4.939551777564998 -2.6088284958162005 -25.59626248073931 -1 0 0
381 0 5 0 4.901480052711196 -6.742936050834409 -21.528554873545517 -1 0 0
125 0 5 0 4.9000362899631575 -6.781389665378943 -25.529396185416243 -1 0 0
413 0 5 0 4.913981098329974 -2.6917519269054173 -21.57604149730277 -1 0 0
410 0 5 0 2.8649029347274375 -0.7276003323148857 -21.57965837896774 -1 0 0
414 0 5 0 6.949992039229675 -0.6836591195087954 -21.5220242999946 -1 0 0
154 0 5 0 2.8574721995510255 -0.6348745319755649 -25.61655544847368 -1 0 0
126 0 5 0 6.895790023108551 -4.812297780874012 -25.47966306307832 -1 0 0
159 0 5 0 6.964741437830269 -2.6886291921852083 -23.497588555575355 -1 0 0
127 0 5 0 6.94187690081796 -6.815619265424981 -23.51059254534422 -1 0 0
156 0 5 0 0.9153957597436033 -0.6385064334987938 -23.578415364578607 -1 0 0
390 0 5 0 15.042611597866948 -0.6941888474013862 -21.6020184553433 -2 0 0
135 0 5 0 14.995055851299082 -2.7809081372587374 -23.666721523625203 -2 0 0
358 0 5 0 15.079278325137405 -4.776101167353354 -21.595422325255353 -2 0 0
102 0 5 0 15.076847806080611 -4.768487046762237 -25.679726709107754 -2 0 0
134 0 5 0 15.037188811704407 -0.6241830814283975 -25.596547077300364 -2 0 0
132 0 5 0 8.971577626754826 -0.7104059161338698 -23.48784082278505 -2 0 0
133 0 5 0 13.062990025819833 -2.659354417119361 -25.62862186212522 -2 0 0
101 0 5 0 13.014656345167133 -6.635909880630183 -25.70528141091894 -2 0 0
131 0 5 0 10.978190612393298 -2.7394373373859384 -23.64130332014396 -2 0 0
385 0 5 0 9.02225384737659 -2.754527836385018 -21.579088896137115 -2 0 0
353 0 5 0 8.89293311861017 -6.809643338515791 -21.51246382522179 -2 0 0
103 0 5 0 14.957471141673285 -6.732729888539318 -23.545739684132005 -2 0 0
357 0 5 0 12.985905729474027 -6.725456653388028 -21.59089518072955 -2 0 0
129 0 5 0 8.912239814623327 -2.7509590597372493 -25.588191347098384 -2 0 0
104 0 5 0 12.968065298024403 -4.6611966322348035 -23.629858515617475 -2 0 0
99 0 5 0 10.976880506764363 -6.748925882630929 -23.60430853895956 -2 0 0
354 0 5 0 10.997734634925976 -4.793887849734138 -21.59115058722397 -2 0 0
100 0 5 0 8.978203765210118 -4.804979548014594 -23.531599213267963 -2 0 0
389 0 5 0 13.035011035829488 -2.7331311362613246 -21.584144568255976 -2 0 0
98 0 5 0 10.963958591570844 -4.763218230933253 -25.648772163777206 -2 0 0
97 0 5 0 8.989353092838591 -6.788605890704124 -25.653511530543913 -2 0 0
130 0 5 0 10.875567552272447 -0.6391865757185058 -25.601431525529318 -2 0 0
386 0 5 0 11.036220543198379 -0.682958449087925 -21.561246217057658 -2 0 0
136 0 5 0 13.008535091535656 -0.7498170223923273 -23.570847270652756 -2 0 0
1339 20 2 0.5564 -15.94463737727838 -13.509281450119794 -15.493602376136423 -1 0 0
549 0 5 0 -15.403342927307657 -10.804059494902486 -17.641723390146556 -1 0 0
300 0 5 0 -15.297637289691314 -12.843344770530205 -19.63189674925492 -1 0 0
1338 20 1 -1.1128 -15.208249582254519 -12.967482364887752 -15.210018663592699 -1 0 0
533 0 5 0 -15.195219720695297 -14.71878719244804 -17.578774828998178 -1 0 0
1340 20 2 0.5564 -14.443329473870678 -13.365735956491614 -15.625378707892368 -1 0 0
2312 344 2 0.5564 -12.83175243959231 -9.184202400113422 -12.424521250874744 0 0 0
2310 344 1 -1.1128 -13.550488766353963 -9.803139227056114 -12.553237979214982 0 0 0
1505 75 2 0.5564 -13.033736078223145 -14.707557789079921 -13.928526912627106 -1 0 0
2311 344 2 0.5564 -14.341588138072492 -9.289569382669626 -12.39001788123258 0 0 0
331 0 5 0 -13.30368970202924 -10.765265072212346 -19.558179646532214 -1 0 0
534 0 5 0 -13.218848527936723 -12.732204374323663 -17.553782155553705 -1 0 0
299 0 5 0 -13.271887117535256 -14.805001026856514 -19.594884803000948 -1 0 0
1503 75 1 -1.1128 -13.07755780552528 -14.651744982591657 -14.883093328814638 -1 0 0
1527 83 1 -1.1128 -13.563020967856911 -10.904672259805368 -15.112347788136704 -1 0 0
1528 83 2 0.5564 -13.83776884759892 -10.49479821138687 -14.292134594638014 -1 0 0
1529 83 2 0.5564 -14.103636218139313 -11.691666792510276 -15.180232191742824 -1 0 0
1504 75 2 0.5564 -12.471718621461937 -15.325840431792992 -15.190968474814207 -1 0 0
535 0 5 0 -11.210502321095268 -14.777620392164865 -17.626742328174725 -1 0 0
304 0 5 0 -11.270780498786083 -12.732273551400194 -19.55203656076062 -1 0 0
551 0 5 0 -11.211223835435066 -10.75455193150648 -17.55614713381028 -1 0 0
1533 85 1 -1.1128 -11.402446868986857 -12.499863716850966 -15.041897567071254 -1 0 0
1904 208 2 0.5564 -9.92873341298003 -13.221650629354285 -11.636596053289923 0 0 0
1364 28 2 0.5564 -10.261348903791442 -8.63581840790665 -15.4072834356437 -1 0 0
1903 208 2 0.5564 -10.169759006236673 -13.040003375933239 -13.120107790454227 0 0 0
1534 85 2 0.5564 -12.127010334772152 -11.880050311289914 -15.125986848740263 -1 0 0
1535 85 2 0.5564 -11.82112983625091 -13.360624938083836 -15.04704947964615 -1 0 0
1902 208 1 -1.1128 -9.482347427396947 -13.235156448755104 -12.48323049208669 0 0 0
1361 27 2 0.5564 -14.674410343613824 -9.37979556741725 -15.71009292375384 -1 0 0
1360 27 2 0.5564 -16.14846243792066 -9.469315016730457 -15.376848407060915 -1 0 0
1897 206 2 0.5564 -12.807458199829043 -13.408998500372356 -11.762771760086355 0 0 0
1896 206 1 -1.1128 -12.64254116839482 -14.330430799015906 -11.962767498915431 0 0 0
1363 28 2 0.5564 -11.61344014396102 -8.200187486355096 -15.930705068356524 -1 0 0
1343 21 2 0.5564 -10.237323760782159 -11.041195207985274 -14.817871855323832 -1 0 0
332 0 5 0 -15.314854095316973 -8.758313471682513 -19.61781868957958 -1 0 0
1898 206 2 0.5564 -13.50500304041084 -14.688459786110748 -12.173023635906649 0 0 0
1316 12 2 0.5564 -8.800003962661394 -13.993635669180934 -14.929099706979711 -1 0 0
2002 241 2 0.5564 -13.145259979572666 -11.247858742803514 -11.500096840232017 -1 1 0
2001 241 1 -1.1128 -13.225040723350823 -11.949367881435185 -10.85375959317111 -1 1 0
2003 241 2 0.5564 -14.142285663527991 -11.92166306101675 -10.581498596087279 -1 1 0
1362 28 1 -1.1128 -11.182877538943167 -8.5659619072568 -15.158010568713673 -1 0 0
336 0 5 0 -11.207343652616865 -8.772860489639534 -19.55224446499691 -1 0 0
550 0 5 0 -13.289613677913094 -8.831779395739547 -17.61796219832357 -1 0 0
1314 12 1 -1.1128 -9.217504241966566 -14.839908840136406 -15.089560354834541 -1 0 0
536 0 5 0 -9.196406545732051 -12.798165104141514 -17.571470059812153 -1 0 0
303 0 5 0 -9.185622165711058 -14.715558759540102 -19.574280152710404 -1 0 0
335 0 5 0 -9.187316467950305 -10.711553061388129 -19.564951904255373 -1 0 0
552 0 5 0 -9.179742261054775 -8.763148040668934 -17.56664097258033 -1 0 0
1341 21 1 -1.1128 -9.326248381724733 -10.750833155438883 -14.861050783434955 -1 0 0
1315 12 2 0.5564 -8.499735421637933 -15.415304879114876 -15.354060338155612 -1 0 0
1796 172 2 0.5564 -9.7245024891367 -8.947002684777027 -13.43026534839679 -1 0 0
2659 460 2 0.5564 16.145129099888138 -11.634117977821713 -12.006079700630051 -1 0 0
1359 27 1 -1.1128 -15.407307637106287 -8.863579118902063 -15.374512839514086 -1 0 0
1794 172 1 -1.1128 -9.233210080077418 -8.28365842508078 -12.945664467891811 -1 0 0
2699 473 2 0.5564 -11.992107244843044 -9.319501801270524 -10.473810810747214 -1 0 0
2697 473 1 -1.1128 -11.1209744019367 -9.297436718636582 -10.869882513866386 -1 0 0
1342 21 2 0.5564 -8.901966316175168 -11.378048233706032 -15.446557831226988 -1 0 0
1490 70 2 0.5564 -8.713308681072624 -15.365049105765763 -12.758235288673019 -1 0 0
3087 603 1 -1.1128 -15.991113389601807 -8.596639829963866 -11.796715030256 0 0 0
1708 143 2 0.5564 -7.778019387104566 -12.508924706487555 -12.274275280297214 -1 0 0
1489 70 2 0.5564 -7.925987928093384 -15.132196138244689 -11.486306942454098 -1 0 0
2658 460 1 -1.1128 15.844567025990084 -11.717985662043533 -12.91098952900471 -1 0 0
2660 460 2 0.5564 -15.679228221686698 -11.891295873416059 -13.413237999091036 0 0 0
3387 703 1 -1.1128 15.10259739677853 -14.853075853947622 -11.504612313126835 -1 1 0
3388 703 2 0.5564 15.898876645664433 -15.141035376451805 -11.95098719989849 -1 1 0
2698 473 2 0.5564 -10.53470488168412 -9.602364811978022 -10.177394947181833 -1 0 0
2317 346 2 0.5564 -15.936516464073929 -12.598225422309259 -9.927332228956068 -1 0 0
3385 702 2 0.5564 -14.789675762191843 -8.749075203255215 -10.405797292633899 0 0 0
3287 669 2 0.5564 -7.639779040478452 -2.074852261453507 -0.42815987565391755 0 0 0
2599 440 2 0.5564 -7.465919005825704 -12.663614888390601 -9.511303880489614 0 0 0
1318 13 2 0.5564 -7.388374830657764 -12.575809831943563 -14.02984923432806 -1 0 0
1317 13 1 -1.1128 -7.322719221562865 -12.642618421482732 -14.98245537614958 -1 0 0
1707 143 1 -1.1128 -6.837708895838546 -12.356131732639486 -12.180988707184412 -1 0 0
553 0 5 0 -7.216734052641958 -10.7764588067867 -17.571447185524633 -1 0 0
1319 13 2 0.5564 -6.720741025397957 -13.371864548849885 -15.130966217259767 -1 0 0
1709 143 2 0.5564 -6.7706006529888425 -11.45059198603988 -11.878125521739381 -1 0 0
308 0 5 0 -7.173487896464391 -12.786583574317731 -19.518140342835984 -1 0 0
537 0 5 0 -7.168343006205332 -14.833465197567168 -17.6034431569232 -1 0 0
1510 77 2 0.5564 -5.9147432634683135 -11.325359855161691 -15.178018906667834 -1 0 0
339 0 5 0 -5.231587752358656 -10.83931818580112 -19.580032893126887 -1 0 0
1344 22 1 -1.1128 -5.3315461061369165 -14.6734837389773 -15.329153775352259 -1 0 0
1509 77 1 -1.1128 -5.1761081251213215 -10.716714059815537 -15.163865047822629 -1 0 0
1511 77 2 0.5564 -4.523025907737119 -11.118531435040282 -15.736803322648019 -1 0 0
538 0 5 0 -5.160427427688067 -12.819366512414472 -17.57423730749384 -1 0 0
307 0 5 0 -5.120248210103045 -14.83127275244355 -19.579905583653485 -1 0 0
1346 22 2 0.5564 -4.894298490258657 -15.472626096750213 -15.623123430750548 -1 0 0
1345 22 2 0.5564 -4.617692538929816 -14.090539150595887 -15.070656001024226 -1 0 0
2289 337 1 -1.1128 -3.6150134907786855 -14.244533505706768 -12.66274067834998 -2 0 0
2291 337 2 0.5564 -4.354766101221601 -14.85115094814498 -12.63089344932086 -2 0 0
2570 430 2 0.5564 -3.492000058381896 -11.462756520855011 -10.752951214771958 -1 0 0
2569 430 2 0.5564 -4.0641658991556255 -10.44283208939169 -11.714344568199401 -1 0 0
2568 430 1 -1.1128 -3.6681782872398085 -11.313679051628304 -11.681913339919218 -1 0 0
539 0 5 0 -3.20920982940643 -14.85375866920261 -17.47347583584527 -1 0 0
2615 445 2 0.5564 -1.570172789551294 -13.614871069779436 -12.292173138232624 -1 1 0
2169 297 1 -1.1128 -6.871636124679308 -9.254916577337537 -11.570930462634754 -1 1 0
1539 87 1 -1.1128 -3.207866567794224 -12.8255739890319 -15.055999888235133 -1 0 0
312 0 5 0 -3.1496397723177587 -12.831595371310675 -19.551144359096632 -1 0 0
555 0 5 0 -3.1467884279902028 -10.811656383164696 -17.567563691882302 -1 0 0
1537 86 2 0.5564 -3.34863220510192 -8.457193699329833 -13.998078612467452 -1 0 0
1541 87 2 0.5564 -2.71373799494087 -12.012874220979233 -14.948346224710763 -1 0 0
1540 87 2 0.5564 -3.2653194277808217 -13.19028250157068 -14.172869109715286 -1 0 0
2170 297 2 0.5564 -7.128017829296569 -9.468664346932101 -10.673816827450928 -1 1 0
2171 297 2 0.5564 -7.699533258338111 -9.110955093042337 -12.029291091110816 -1 1 0
340 0 5 0 -7.178739777186929 -8.735317335547252 -19.61271000676234 -1 0 0
2397 373 1 -1.1128 -4.270741510821372 -8.408837963769509 -12.037911771571968 -1 0 0
2399 373 2 0.5564 -3.8885658724865895 -7.836929567949165 -11.372258376010278 -1 0 0
2398 373 2 0.5564 -5.172510448506832 -8.545805571613764 -11.747593626135712 -1 0 0
2613 445 1 -1.1128 -0.7590392656563463 -14.053802575341072 -12.548363754011985 -1 1 0
554 0 5 0 -5.109581405098791 -8.89818472189808 -17.600979463398122 -1 0 0
1347 23 1 -1.1128 -1.1674117207086425 -10.908246821683855 -14.839831724510221 -1 0 0
1348 23 2 0.5564 -0.4155211789946695 -11.480225964072746 -14.993887218895251 -1 0 0
1536 86 1 -1.1128 -3.607595010584467 -8.47894704362765 -14.919326382370732 -1 0 0
344 0 5 0 -3.1514798936993356 -8.806432567010896 -19.585782349499507 -1 0 0
311 0 5 0 -1.1408699921426564 -14.878569250540322 -19.53074390467512 -1 0 0
540 0 5 0 -1.1215029696617278 -12.843166406103508 -17.559635026469365 -1 0 0
343 0 5 0 -1.1850950829150766 -10.788154742784446 -19.514373068769896 -1 0 0
556 0 5 0 -1.1837704417753843 -8.767130468451557 -17.437384628039045 -1 0 0
1320 14 1 -1.1128 -1.1088810356497285 -14.582966668326586 -15.203187557779232 -1 0 0
2290 337 2 0.5564 -3.9870224898975826 -13.399023803654838 -12.411831796399124 -2 0 0
2614 445 2 0.5564 -0.9463154849588722 -14.418346837949995 -13.413389002337896 -1 1 0
1349 23 2 0.5564 -1.0722583297760064 -10.626609309507907 -13.929963778607805 -1 0 0
1367 29 2 0.5564 -6.500521388812228 -9.503526610545311 -15.057982976058868 -1 0 0
1365 29 1 -1.1128 -7.2093221611500535 -8.886184848498948 -15.23887823604389 -1 0 0
3216 646 1 -1.1128 -6.7149079175654425 -14.295133783730344 -10.204489840089257 0 0 0
1321 14 2 0.5564 -0.28825058262051173 -14.11243073629136 -15.349452612315678 -1 0 0
1322 14 2 0.5564 -1.787701690044544 -13.91333169786622 -15.28699331451954 -1 0 0
1538 86 2 0.5564 -4.065374796219394 -9.313499021362345 -15.020290330914046 -1 0 0
1366 29 2 0.5564 -8.000610907972373 -9.42473927582995 -15.246184020980458 -1 0 0
3218 646 2 0.5564 -6.545057525302823 -13.828788999059716 -11.02296724924666 0 0 0
2473 398 2 0.5564 -1.3678900790229491 -9.520659670105832 -12.309144763523893 -1 0 0
2474 398 2 0.5564 -1.9333303884435793 -10.868190520261443 -11.913751597912547 -1 0 0
2472 398 1 -1.1128 -1.1209552432345846 -10.436030404418567 -12.177413061555644 -1 0 0
4937 0 3 1 -0.7788560870644652 -15.890660229090967 -11.243366580579815 -1 0 0
2226 316 1 -1.1128 10.755234166033308 -8.103533722890372 -0.8352601749346081 -1 1 0
4413 1045 1 -1.1128 -4.687051325678011 -14.932289397651248 -8.82716104459973 0 0 0
3448 723 2 0.5564 12.272247357526853 -9.079276423236509 -0.17603422951319372 0 0 0
4415 1045 2 0.5564 -5.249843876840868 -15.203860265377783 -8.102077806634627 0 0 0
3217 646 2 0.5564 -5.869895580753024 -14.306565643395675 -9.754984108909515 0 0 0
2168 296 2 0.5564 -11.687173923177882 -14.146722200984076 -1.8954182227026863 0 0 0
541 0 5 0 0.8492418118282954 -14.819989703371943 -17.492432584397857 -1 0 0
557 0 5 0 0.8716103610612427 -10.84427160999364 -17.45758067315584 -1 0 0
1325 15 2 0.5564 1.8327100013607251 -12.47695809769956 -15.508140668560758 -1 0 0
1323 15 1 -1.1128 0.9794927691721048 -12.822328307860667 -15.245514634848762 -1 0 0
316 0 5 0 0.9314838557823006 -12.847096304543909 -19.53508018453515 -1 0 0
1324 15 2 0.5564 1.0152128380860888 -12.848608641612271 -14.289342122387788 -1 0 0
1303 8 2 0.5564 2.4837701007312054 -15.076292310691883 -15.766000438607424 -1 0 0
3823 848 2 0.5564 2.500484682998721 -13.390005304320454 -12.369664480610716 -1 0 0
3824 848 2 0.5564 3.8681520324674694 -13.458487816721572 -11.724147651400344 -1 0 0
3822 848 1 -1.1128 3.040146793585898 -13.933412886201468 -11.795464812070499 -1 0 0
1304 8 2 0.5564 3.6019339620039212 -15.53817531999461 -14.855907512162139 -1 0 0
1302 8 1 -1.1128 3.163904812358751 -14.749904904991284 -15.176831556024336 -1 0 0
1926 216 1 -1.1128 2.821557183706559 -10.751137733511515 -15.174030513158504 -1 0 0
2417 379 2 0.5564 1.6929866650289978 -14.526483503541161 -10.600855529764662 -1 1 0
542 0 5 0 2.986266616557463 -12.835619927243723 -17.45494975650012 -1 0 0
315 0 5 0 2.8829569677236426 -14.832415253056539 -19.475823490141032 -1 0 0
347 0 5 0 2.8823625436964107 -10.755469801501215 -19.56563802786434 -1 0 0
1928 216 2 0.5564 2.174250465421571 -10.131154789146608 -15.509959261602317 -1 0 0
2334 352 1 -1.1128 1.5532227621124273 -11.559493589671922 -12.715796114329292 -1 0 0
1927 216 2 0.5564 3.6517118501813415 -10.276241303137699 -15.21338930622791 -1 0 0
1520 80 2 0.5564 4.297073875772278 -12.92732083769069 -15.032543562139157 -1 0 0
2336 352 2 0.5564 0.6267226406180095 -11.319062593510989 -12.720559715862173 -1 0 0
2668 463 2 0.5564 6.322641565834867 -13.687238817530652 -11.523115298597377 -1 0 0
2667 463 1 -1.1128 5.7138826210220675 -12.964878302362568 -11.677517181207596 -1 0 0
3494 738 2 0.5564 5.425715140118949 -12.041278007677814 -10.00413302270243 -1 0 0
320 0 5 0 4.9110918598991935 -12.706493270114377 -19.53620501507416 -1 0 0
543 0 5 0 4.905093966153477 -14.838618093504895 -17.615779363583748 -1 0 0
559 0 5 0 4.893400094559165 -10.737753320279495 -17.529804018109413 -1 0 0
1518 80 1 -1.1128 5.21414360273713 -12.754596372634003 -14.819514569134352 -1 0 0
2335 352 2 0.5564 1.8943919217978962 -11.216599484018982 -13.541786750905391 -1 0 0
2669 463 2 0.5564 6.261296947417955 -12.259116300556295 -12.021713400594843 -1 0 0
1519 80 2 0.5564 5.231607946699451 -12.695475420867366 -13.864301707068787 -1 0 0
1732 151 2 0.5564 -0.07105452547200576 -9.219047775594527 -15.254491024228454 -1 0 0
1736 152 2 0.5564 5.648889280596139 -9.156886295883956 -15.14924535217733 -1 0 0
2995 572 2 0.5564 5.888049968811117 -9.85377994401146 -11.993635240522876 -1 1 0
1328 16 2 0.5564 6.19547385810521 -14.134636383009676 -14.964041909341288 -1 0 0
1327 16 2 0.5564 5.834403125240886 -15.600620911692609 -14.852630463753233 -1 0 0
1734 152 1 -1.1128 4.854774824397587 -8.628502035859846 -15.069094268577064 -1 0 0
348 0 5 0 0.8765736403250051 -8.780681575066021 -19.43874707790098 -1 0 0
352 0 5 0 4.850818273400579 -8.666703136985 -19.481078195059343 -1 0 0
558 0 5 0 2.926883018685925 -8.78095899527898 -17.44296277452067 -1 0 0
351 0 5 0 6.876819462716224 -10.662389039566891 -19.538212925900687 -1 0 0
1326 16 1 -1.1128 6.582289930999622 -15.00991566842581 -14.941874529707436 -1 0 0
1731 151 1 -1.1128 0.7974772438748232 -8.84089652048741 -15.117063738966372 -1 0 0
560 0 5 0 6.873631741241187 -8.689677333955427 -17.48972361190478 -1 0 0
2994 572 1 -1.1128 6.655291448703066 -10.419904436809482 -12.07775787389111 -1 1 0
544 0 5 0 6.910201366593323 -12.79761340412721 -17.507345893488196 -1 0 0
319 0 5 0 6.941731029315552 -14.765361543806392 -19.52641694009404 -1 0 0