LAMMPS data file via write_data, version 15 Sep 2022, timestep = 20000

4948 atoms
5 atom types
2432 bonds
1 bond types
1216 angles
1 angle types

-16.16 16.16 xlo xhi
-16.16 16.16 ylo yhi
-40 40 zlo zhi

Masses

1 15.9994
2 1.008
3 28.99
4 35.453
5 26.9815

Pair Coeffs # lj/cut/tip4p/long

1 0.185199 3.1589
2 0 0
3 0.0469 2.4299
4 0.15 4.0447
5 11.697 2.574

Bond Coeffs # harmonic

1 0 0.9572

Angle Coeffs # harmonic

1 0 104.52

Atoms # full

262 0 5 0 -13.59250104356324 -14.014283164245292 -21.353011661950887 0 0 0
261 0 5 0 -15.620187516154644 -16.11638933906777 -21.31082001208463 0 0 0
293 0 5 0 -15.56927520303172 -11.922111278402868 -21.364658855815428 0 0 0
294 0 5 0 -13.622728616581265 -9.947797972805196 -21.433743589263372 0 0 0
40 0 5 0 -15.652094238958135 -9.981577959288497 -23.307288136616137 0 0 0
8 0 5 0 -15.647314740539885 -14.029786122373867 -23.323350696948363 0 0 0
39 0 5 0 -13.635519642345711 -11.97519908824261 -23.348503991867283 0 0 0
7 0 5 0 -13.635842047352538 -16.043723454212397 -23.308735956678966 0 0 0
38 0 5 0 -13.633678195482112 -9.995650464585749 -25.32936105729391 0 0 0
6 0 5 0 -13.544890529560243 -13.943848074428512 -25.46012940109002 0 0 0
37 0 5 0 -15.622353318434204 -12.028108276557592 -25.28761466853961 0 0 0
5 0 5 0 -15.537317634327914 -15.956729513907153 -25.388826830076955 0 0 0
297 0 5 0 -11.578333946653812 -11.969572035086053 -21.465396473251968 0 0 0
12 0 5 0 -11.626878482225719 -14.001303976341646 -23.439162401859797 0 0 0
44 0 5 0 -11.509302380866933 -9.920418844979329 -23.337359085691126 0 0 0
265 0 5 0 -11.57791390244963 -16.048986012841414 -21.40761886288178 0 0 0
41 0 5 0 -11.49932553508912 -11.953121264875096 -25.34069065837028 0 0 0
9 0 5 0 -11.592358912907093 -16.132570638507612 -25.317034362937388 0 0 0
266 0 5 0 -9.655039682084706 -14.068626047905653 -21.378407018733874 0 0 0
298 0 5 0 -9.592268929222973 -9.954155952399205 -21.409508756987204 0 0 0
43 0 5 0 -9.584070626583081 -12.022837163156796 -23.356042763951532 0 0 0
11 0 5 0 -9.543379381824334 -16.03706285599233 -23.378997025605663 0 0 0
42 0 5 0 -9.494188601631867 -10.006504435815346 -25.392910258019626 0 0 0
10 0 5 0 -9.569604297028844 -14.03979002652638 -25.401083277495665 0 0 0
270 0 5 0 -5.561061833004292 -14.023714936206257 -21.38384100034637 0 0 0
301 0 5 0 -7.5585946960465105 -12.073742306286327 -21.444657389323446 0 0 0
302 0 5 0 -5.571213134245628 -10.010952484232035 -21.41187262002911 0 0 0
16 0 5 0 -7.503889928769889 -14.040435934314827 -23.446918184426426 0 0 0
47 0 5 0 -5.541398231389725 -12.025264503509439 -23.364430226548976 0 0 0
48 0 5 0 -7.546931434135008 -9.982040475511756 -23.354448234511096 0 0 0
15 0 5 0 -5.560305264608909 -15.99179918807474 -23.354154673726196 0 0 0
269 0 5 0 -7.566499082242721 -16.000252802771932 -21.393614812169073 0 0 0
14 0 5 0 -5.5343305742499105 -14.003725242543842 -25.413929325350633 0 0 0
13 0 5 0 -7.535091340692406 -16.07723020810318 -25.40919191202176 0 0 0
46 0 5 0 -5.572738453503253 -9.96548689802174 -25.40441895650008 0 0 0
45 0 5 0 -7.520095276603918 -12.067198467733355 -25.335206069101506 0 0 0
305 0 5 0 -3.4745397559522417 -12.052920824306131 -21.346879616556834 0 0 0
273 0 5 0 -3.515503381818534 -16.05235300273321 -21.360598207165797 0 0 0
52 0 5 0 -3.5504719585765723 -9.946166432201826 -23.46743946431253 0 0 0
20 0 5 0 -3.4764886550622127 -14.026364940789191 -23.35084653464576 0 0 0
49 0 5 0 -3.529428726450932 -11.982405823415485 -25.4315249037214 0 0 0
17 0 5 0 -3.496422526114336 -15.956530273585175 -25.344256923212985 0 0 0
274 0 5 0 -1.4196600615393793 -14.030374723623266 -21.380325012104226 0 0 0
306 0 5 0 -1.4755853169723547 -9.976431418717139 -21.362487002775076 0 0 0
51 0 5 0 -1.5624949426048786 -11.951888483864268 -23.356884147684468 0 0 0
19 0 5 0 -1.465531959783565 -16.020333424829115 -23.3241433915537 0 0 0
50 0 5 0 -1.5468295577092785 -9.927376206861382 -25.384611024597323 0 0 0
18 0 5 0 -1.5068496774051945 -14.024948828390725 -25.29158537873442 0 0 0
309 0 5 0 0.5221156086973675 -12.031288491604794 -21.37953487544782 0 0 0
278 0 5 0 2.5763219960250523 -14.058347052434279 -21.34343531256889 0 0 0
310 0 5 0 2.5870222441153827 -9.997958272267455 -21.38531653747872 0 0 0
55 0 5 0 2.5203577616483304 -11.988348892862858 -23.30748931307528 0 0 0
24 0 5 0 0.5781828819345032 -14.023785017123485 -23.35706405490369 0 0 0
56 0 5 0 0.5231814958139069 -10.032421597580663 -23.34365120067002 0 0 0
277 0 5 0 0.5065595220040473 -16.02802010310031 -21.35163018122929 0 0 0
23 0 5 0 2.5761889814052648 -16.057118758965345 -23.304865114870005 0 0 0
22 0 5 0 2.475169210283736 -13.977655708850923 -25.319593563723572 0 0 0
53 0 5 0 0.4873421989670055 -11.945223326479269 -25.32922716909264 0 0 0
54 0 5 0 2.5558445317911054 -9.988018365408477 -25.23452293207938 0 0 0
21 0 5 0 0.5408116122376843 -16.024538360655512 -25.335854651520368 0 0 0
60 0 5 0 4.588603760364793 -9.994757650570888 -23.349684071603818 0 0 0
281 0 5 0 4.600539804171564 -16.04807934886832 -21.358976921579224 0 0 0
313 0 5 0 4.583297781487001 -12.008989151396833 -21.367936838448962 0 0 0
28 0 5 0 4.542415831090457 -13.982484372051918 -23.359576926278915 0 0 0
25 0 5 0 4.500368418587601 -15.979294439118524 -25.32917430890891 0 0 0
57 0 5 0 4.539603206439329 -11.985641674771186 -25.423252051810774 0 0 0
314 0 5 0 6.56330269258874 -9.986528335075059 -21.41491825779502 0 0 0
282 0 5 0 6.568363945473274 -13.937642852700764 -21.402384674370953 0 0 0
59 0 5 0 6.552353642936239 -12.023075870083831 -23.36273133107255 0 0 0
27 0 5 0 6.608964037056166 -16.03715797388948 -23.334089793414055 0 0 0
26 0 5 0 6.560829166029384 -14.014003994847382 -25.32029989367713 0 0 0
58 0 5 0 6.596475677181994 -10.018936603348754 -25.323025930628003 0 0 0
258 0 5 0 14.698155791232455 -13.948411617185913 -21.375165290459996 -1 0 0
290 0 5 0 14.616207301803414 -9.964217273201042 -21.37170419017613 -1 0 0
35 0 5 0 14.678858160137302 -12.058410797748374 -23.295602849822554 -1 0 0
3 0 5 0 14.753749449867726 -16.04155303939058 -23.36312148778268 -1 0 0
34 0 5 0 14.625990713946006 -10.023143018699198 -25.288007267281653 -1 0 0
2 0 5 0 14.61269713108915 -14.026274523220062 -25.401646772529922 -1 0 0
4 0 5 0 12.645537983614492 -13.95513471260464 -23.32426500361391 -1 0 0
289 0 5 0 12.610976560725614 -11.950458877500157 -21.32378543873046 -1 0 0
257 0 5 0 12.72159820087732 -15.994550878852433 -21.45010281828051 -1 0 0
36 0 5 0 12.692299547742028 -9.927611620102693 -23.34906020985222 -1 0 0
1 0 5 0 12.668973219502853 -16.125500488318643 -25.277200693243 -1 0 0
33 0 5 0 12.582090733582866 -11.988730282325934 -25.434572897290334 -1 0 0
286 0 5 0 10.611051830424127 -14.012616427469299 -21.382155615522347 0 0 0
317 0 5 0 8.618448153640184 -12.011648884335903 -21.361242857455625 0 0 0
318 0 5 0 10.655912641560718 -9.895407458678596 -21.41595990999147 0 0 0
32 0 5 0 8.624211294454387 -13.999911993788547 -23.347823088878016 0 0 0
63 0 5 0 10.651177219728508 -11.936289353570665 -23.355500383563893 0 0 0
31 0 5 0 10.66182644451704 16.1551643910342 -23.331422011456926 0 -1 0
64 0 5 0 8.65834943794507 -10.003265878683191 -23.322992695069107 0 0 0
285 0 5 0 8.702056964465857 -16.01276681753741 -21.402245431710323 0 0 0
61 0 5 0 8.602000082292255 -12.00378483467052 -25.31532953464092 0 0 0
30 0 5 0 10.663232157073056 -14.066072360618254 -25.2297971325859 0 0 0
29 0 5 0 8.67035489465809 -16.086276800927745 -25.34219882256575 0 0 0
62 0 5 0 10.539186186909728 -9.924646764746809 -25.364590085983128 0 0 0
71 0 5 0 -13.629236411940719 -7.942752283776135 -23.318294731347304 0 0 0
325 0 5 0 -15.630146445274546 -7.90218658349074 -21.380980469815118 0 0 0
357 0 5 0 -15.654094270556515 -3.8260623100303808 -21.397808786650323 0 0 0
358 0 5 0 -13.560721674893136 -1.9234154068715728 -21.382173419869694 0 0 0
326 0 5 0 -13.635636994087523 -5.920353492337381 -21.408834445154977 0 0 0
72 0 5 0 -15.673967120102033 -5.87322946536737 -23.335541222740762 0 0 0
103 0 5 0 -13.682528858357257 -3.8895375289207035 -23.339466729092006 0 0 0
104 0 5 0 -15.67193470200614 -1.8495209331647686 -23.396823926774015 0 0 0
70 0 5 0 -13.582321811028711 -5.88766855707794 -25.386083857566017 0 0 0
69 0 5 0 -15.692434114662166 -7.991859078556374 -25.294744238160735 0 0 0
101 0 5 0 -15.62534365486341 -3.77884338245657 -25.456839851069393 0 0 0
102 0 5 0 -13.563152193949932 -1.867752938503007 -25.401806118400604 0 0 0
105 0 5 0 -11.538375519682345 -3.846570066192771 -25.382094692510396 0 0 0
329 0 5 0 -11.64392640197946 -7.9082888944291785 -21.36788165275532 0 0 0
361 0 5 0 -11.627477418402606 -3.9578541082751135 -21.41725275955679 0 0 0
108 0 5 0 -11.575891152490385 -1.8766874486536276 -23.38840489566979 0 0 0
76 0 5 0 -11.578688466383307 -5.965349552778786 -23.391805016856942 0 0 0
73 0 5 0 -11.6543218995781 -8.002938123586672 -25.41620990774776 0 0 0
75 0 5 0 -9.547291017200902 -7.933217188969875 -23.422131602415885 0 0 0
330 0 5 0 -9.585097471527957 -6.016395765819358 -21.387520096964465 0 0 0
362 0 5 0 -9.533262795708918 -1.8727847061876313 -21.428982003473024 0 0 0
107 0 5 0 -9.594280425341566 -3.900788815201839 -23.32614675613682 0 0 0
106 0 5 0 -9.586123508007839 -1.9060780463324816 -25.312303043349235 0 0 0
74 0 5 0 -9.573803078827517 -5.847113738481517 -25.420184234201116 0 0 0
333 0 5 0 -7.541588495221648 -7.978989074528505 -21.385468538561142 0 0 0
79 0 5 0 -5.565682808608824 -7.978442498733577 -23.291975390008346 0 0 0
334 0 5 0 -5.613932661190753 -5.920788748226854 -21.455082278711522 0 0 0
366 0 5 0 -5.573693669098424 -1.9659982902996025 -21.428135386990682 0 0 0
365 0 5 0 -7.539851992315992 -3.9925001211343925 -21.346729277228327 0 0 0
80 0 5 0 -7.628045124319784 -5.961880084227756 -23.367833400766003 0 0 0
112 0 5 0 -7.564973417772558 -1.8693429313870245 -23.386574800437216 0 0 0
111 0 5 0 -5.592449215107438 -3.924727053327743 -23.393423620576577 0 0 0
78 0 5 0 -5.667932544900903 -6.0179813724039155 -25.37291978459698 0 0 0
110 0 5 0 -5.5434148067905955 -1.9393039936778376 -25.369216390750903 0 0 0
109 0 5 0 -7.553564931848757 -3.8575673848487315 -25.39174152575859 0 0 0
77 0 5 0 -7.5803057045110664 -7.953227809818461 -25.385659618437103 0 0 0
84 0 5 0 -3.561555609569132 -5.92220375912412 -23.354958723411155 0 0 0
337 0 5 0 -3.484085209207826 -7.924599688806239 -21.484171082198312 0 0 0
116 0 5 0 -3.520158942763518 -1.9015393772125633 -23.309207489178934 0 0 0
369 0 5 0 -3.563209001731299 -3.9395326431353346 -21.456048984454384 0 0 0
81 0 5 0 -3.5256987541044236 -7.898813821738197 -25.373681568953632 0 0 0
113 0 5 0 -3.5256185224058676 -4.000942153908885 -25.406258945696 0 0 0
83 0 5 0 -1.4866164012604353 -7.9328421893526295 -23.36364214448681 0 0 0
338 0 5 0 -1.4579417104007164 -5.909444477101891 -21.438843068013338 0 0 0
370 0 5 0 -1.4637546932978744 -1.888011147862759 -21.43250533008163 0 0 0
115 0 5 0 -1.507577976940646 -3.9532432589730755 -23.430545390054128 0 0 0
114 0 5 0 -1.5279360486903673 -1.870057675888736 -25.234200319014665 0 0 0
82 0 5 0 -1.4629135305782386 -6.008836391616271 -25.373106784613938 0 0 0
341 0 5 0 0.5704359984734984 -7.9789123368864106 -21.38476188897332 0 0 0
87 0 5 0 2.6003039632381575 -7.958593069676133 -23.355633226513504 0 0 0
120 0 5 0 0.5218993105112175 -1.9130954252154844 -23.38363739143229 0 0 0
88 0 5 0 0.5774365932361412 -6.0165611121025755 -23.37380594091249 0 0 0
342 0 5 0 2.5909993026291716 -5.939473111103992 -21.422465238102653 0 0 0
373 0 5 0 0.5650169814331023 -3.898493158899673 -21.392780651061745 0 0 0
374 0 5 0 2.5359173129590356 -1.8396069966838908 -21.35169638577786 0 0 0
119 0 5 0 2.5873052395441505 -3.869347584581968 -23.371734781947577 0 0 0
118 0 5 0 2.515749171130709 -1.8354626337928275 -25.290618614071843 0 0 0
117 0 5 0 0.6137056036457018 -3.9072881371055823 -25.40336760343347 0 0 0
85 0 5 0 0.6420697060789129 -8.029167705197237 -25.303828386291606 0 0 0
86 0 5 0 2.611553403773899 -5.880081158684277 -25.345299960487395 0 0 0
92 0 5 0 4.593974791579602 -5.962577784076802 -23.356866243687815 0 0 0
124 0 5 0 4.570935586574821 -1.9011535666856998 -23.364693561582417 0 0 0
345 0 5 0 4.5824871739919235 -7.9498748637568 -21.35164459716978 0 0 0
377 0 5 0 4.552792072534255 -3.8344127707026194 -21.305570197790797 0 0 0
121 0 5 0 4.583056841736261 -3.8890814249893606 -25.312646155940456 0 0 0
89 0 5 0 4.527526547316312 -8.006483296027179 -25.451150951825667 0 0 0
90 0 5 0 6.471348321005701 -5.948644446330541 -25.38106949531939 0 0 0
91 0 5 0 6.508505165569135 -7.99248450095217 -23.38320518383923 0 0 0
378 0 5 0 6.581193419073794 -1.9061412464511551 -21.335236261414778 0 0 0
346 0 5 0 6.580475696740638 -5.949917262679125 -21.413784848688245 0 0 0
123 0 5 0 6.5438449810526516 -3.8987346609164915 -23.349463105762766 0 0 0
122 0 5 0 6.578099818191621 -1.8920220868058313 -25.39511552821235 0 0 0
67 0 5 0 14.666394399464878 -7.859810600406661 -23.32503307531956 -1 0 0
322 0 5 0 14.631418606281464 -5.873497052773543 -21.384517286443852 -1 0 0
354 0 5 0 14.677734634895433 -1.789160111624281 -21.38107096483723 -1 0 0
99 0 5 0 14.65688050673382 -3.8550514041487536 -23.40471195205035 -1 0 0
66 0 5 0 14.74101310794596 -5.869870507860226 -25.370815443857822 -1 0 0
98 0 5 0 14.6439585915403 -1.85310871638902 -25.410581125134215 -1 0 0
65 0 5 0 12.791742580715201 -7.862988977135207 -25.418773521715497 -1 0 0
321 0 5 0 12.573229058016697 -7.823373568192598 -21.381893668613884 -1 0 0
100 0 5 0 12.658203765179575 -1.8930963225151556 -23.311408393736514 -1 0 0
353 0 5 0 12.572933118579627 -3.916549924035461 -21.369784289524492 -1 0 0
68 0 5 0 12.667321750894022 -5.8786796944923 -23.46099833126083 -1 0 0
97 0 5 0 12.669353092808048 -3.8637671575130614 -25.453846385030975 -1 0 0
95 0 5 0 10.624392483352072 -7.865882099619728 -23.415826579764207 0 0 0
349 0 5 0 8.588784568891908 -7.91194850161416 -21.422439340103416 0 0 0
128 0 5 0 8.543131933234726 -1.9273838772556906 -23.36637323001405 0 0 0
381 0 5 0 8.581480052694413 -4.000569245809942 -21.351976954385652 0 0 0
382 0 5 0 10.54521608634612 -1.9221800330649075 -21.354478197706815 0 0 0
350 0 5 0 10.574770459294214 -5.916363426155385 -21.418446520890644 0 0 0
127 0 5 0 10.621876900792115 -3.9516502266130327 -23.366502256385807 0 0 0
96 0 5 0 8.505876834348776 -5.913727489532618 -23.384268967285006 0 0 0
126 0 5 0 10.575790023082911 -1.8188901191769933 -25.325387392847027 0 0 0
125 0 5 0 8.580036289946381 -3.9335681546659096 -25.496306624717953 0 0 0
94 0 5 0 10.606034768317048 -5.873943263778414 -25.490238408940186 0 0 0
93 0 5 0 8.57675078970964 -7.866965183734107 -25.374707988329686 0 0 0
389 0 5 0 -15.604988964201054 0.06613176704937943 -21.38115124726622 0 0 0
135 0 5 0 -13.64494414873146 0.13068366801766132 -23.38109355212234 0 0 0
422 0 5 0 -13.569169121307501 6.161962221700858 -21.36637699508818 0 0 0
421 0 5 0 -15.58572235704962 4.141158262435065 -21.392690516590378 0 0 0
390 0 5 0 -13.597388402163595 2.0915870141628434 -21.392621356246732 0 0 0
136 0 5 0 -15.631464908494886 2.1604834139502374 -23.363434046734124 0 0 0
167 0 5 0 -13.644564740017762 4.225341700239809 -23.40941284757202 0 0 0
168 0 5 0 -15.712568678770966 6.235124975986845 -23.358708547413364 0 0 0
133 0 5 0 -15.577009974210709 0.19883611751018945 -25.481250167036215 0 0 0
134 0 5 0 -13.602811188326134 2.1559534379516188 -25.36697610011982 0 0 0
166 0 5 0 -13.696772588981071 6.2063609694538515 -25.432318995090885 0 0 0
165 0 5 0 -15.652606504626826 4.155609239125338 -25.361435283313245 0 0 0
140 0 5 0 -11.6233144211029 2.208380005459814 -23.40716419700349 0 0 0
425 0 5 0 -11.611522597883269 4.135355230890208 -21.427808686700153 0 0 0
172 0 5 0 -11.623185370227288 6.198178160530496 -23.397142417690866 0 0 0
169 0 5 0 -11.604562445406035 4.236390645633848 -25.463228144537634 0 0 0
393 0 5 0 -11.46703592720823 0.14773729177512435 -21.471340537727496 0 0 0
137 0 5 0 -11.473386646017978 0.049690240873045806 -25.421488386328463 0 0 0
139 0 5 0 -9.497142160489728 0.16237007706937273 -23.45242387557909 0 0 0
426 0 5 0 -9.599869482353578 6.084402421713923 -21.430573202154964 0 0 0
394 0 5 0 -9.602049851563006 2.1930864155560563 -21.449538961628402 0 0 0
171 0 5 0 -9.564734251899209 4.198936090960914 -23.41282747306223 0 0 0
138 0 5 0 -9.643611797775959 2.20844893432806 -25.438744800603057 0 0 0
170 0 5 0 -9.56661420907709 6.186467907681973 -25.415628011672016 0 0 0
143 0 5 0 -5.644761844795847 0.07056104399178877 -23.421476715859434 0 0 0
397 0 5 0 -7.61973913877371 0.12376864293451922 -21.344132773229756 0 0 0
430 0 5 0 -5.552145501823325 6.13056628733839 -21.387424465432076 0 0 0
429 0 5 0 -7.543502381367523 4.058087616162337 -21.393959873000608 0 0 0
398 0 5 0 -5.55203528146608 2.108495207589083 -21.43038191127723 0 0 0
144 0 5 0 -7.538253723415416 2.156351570466315 -23.48996528372509 0 0 0
176 0 5 0 -7.555812286074611 6.12336597839053 -23.38890289047989 0 0 0
175 0 5 0 -5.518262444387974 4.105104189805972 -23.44643419160572 0 0 0
173 0 5 0 -7.48282584018743 4.160417730027307 -25.521688953445807 0 0 0
141 0 5 0 -7.532062960059291 0.07502630223224908 -25.587621051451652 0 0 0
142 0 5 0 -5.431326256244552 2.118242393534969 -25.45763407229406 0 0 0
174 0 5 0 -5.432732922760668 6.228169279322042 -25.370134955341587 0 0 0
177 0 5 0 -3.477020916726039 4.189782391295997 -25.472637767228854 0 0 0
401 0 5 0 -3.5638451791760524 0.08088465337979919 -21.4227577394086 0 0 0
180 0 5 0 -3.4626170971614574 6.158699678631142 -23.334687748932662 0 0 0
433 0 5 0 -3.507280356615345 4.169044135572834 -21.376402208311355 0 0 0
148 0 5 0 -3.5542406646237343 2.1463303299269656 -23.36040413087816 0 0 0
145 0 5 0 -3.4874428176549728 0.12663897001809513 -25.35121966490113 0 0 0
147 0 5 0 -1.496348061915945 0.12517959045360552 -23.291835299284106 0 0 0
434 0 5 0 -1.5147164687121624 6.1824354040501275 -21.406874870867547 0 0 0
402 0 5 0 -1.4248112688073933 2.1328585496543533 -21.448412653122638 0 0 0
179 0 5 0 -1.4965483930670156 4.155270701821309 -23.39110041902322 0 0 0
146 0 5 0 -1.5244352008746183 2.109827110391273 -25.379180636128044 0 0 0
178 0 5 0 -1.4431779530593452 6.1961106567961215 -25.27249362398726 0 0 0
151 0 5 0 2.645450476140953 0.0966385522672977 -23.3701814830314 0 0 0
184 0 5 0 0.5488110767683931 6.283097907788948 -23.348508838349986 0 0 0
438 0 5 0 2.5635130742413303 6.15457364672062 -21.36434528595893 0 0 0
406 0 5 0 2.607899210390562 2.158995733570767 -21.428452244954375 0 0 0
405 0 5 0 0.5556310667116806 0.14559894491441583 -21.441995108959365 0 0 0
437 0 5 0 0.5178780273069239 4.160452822785777 -21.43731153858761 0 0 0
183 0 5 0 2.561290664460417 4.1812474844041905 -23.369501480323105 0 0 0
152 0 5 0 0.5527067669221863 2.085580233527434 -23.35376496975717 0 0 0
182 0 5 0 2.4902505854420602 6.265528837850063 -25.466154468714244 0 0 0
150 0 5 0 2.6591741220499094 2.125093521570276 -25.258339443065662 0 0 0
181 0 5 0 0.5563665074595456 4.120342149600144 -25.34545157991213 0 0 0
149 0 5 0 0.5243888449547804 0.14338379691701425 -25.256545169220185 0 0 0
441 0 5 0 4.5337716502322944 4.124993912261558 -21.39014912038354 0 0 0
409 0 5 0 4.559525139496816 0.05939920465439546 -21.384020363552796 0 0 0
156 0 5 0 4.595395759722551 2.103333236811245 -23.337603766832316 0 0 0
188 0 5 0 4.6159727169617595 6.214738779007977 -23.290501045506897 0 0 0
185 0 5 0 4.562678136165547 4.197042426568698 -25.31297771911983 0 0 0
153 0 5 0 4.642562064258348 0.16830976383170712 -25.405704016920037 0 0 0
410 0 5 0 6.544902934710715 2.123988308949137 -21.402745414660487 0 0 0
442 0 5 0 6.606826075558381 6.1947167979128475 -21.314324766508694 0 0 0
187 0 5 0 6.589121838519616 4.1594793192613855 -23.3241824634625 0 0 0
155 0 5 0 6.600674703310138 0.07555544778557059 -23.330641172827388 0 0 0
186 0 5 0 6.6536565258446085 6.196448271506963 -25.384909815714057 0 0 0
154 0 5 0 6.537472199534288 2.1625402313314774 -25.348484265657675 0 0 0
131 0 5 0 14.658190612362755 0.15886428678217168 -23.3347935493307 -1 0 0
418 0 5 0 14.712202537592582 6.157468321396532 -21.37348666161095 -1 0 0
386 0 5 0 14.716220543167836 2.0570512671035615 -21.37293537619015 -1 0 0
163 0 5 0 14.597006928296292 4.1621730792269735 -23.297434837948796 -1 0 0
162 0 5 0 14.648336371018228 6.191660131828809 -25.382408580001865 -1 0 0
130 0 5 0 14.555567552241904 2.1254822786262366 -25.424360428513936 -1 0 0
417 0 5 0 12.587589213710782 4.149384409690434 -21.320588044778074 -1 0 0
164 0 5 0 12.706727609339136 6.238745439435822 -23.307864999582243 -1 0 0
385 0 5 0 12.702253847346046 0.18458512224939932 -21.357423684811103 -1 0 0
132 0 5 0 12.651577626724283 2.1789314501449004 -23.308371933785793 -1 0 0
161 0 5 0 12.639856448351793 4.141400004786534 -25.438384376093627 -1 0 0
129 0 5 0 12.592239814592784 0.077582615061492 -25.3694062332132 -1 0 0
159 0 5 0 10.644741437804324 0.07892261525266953 -23.32943474996233 0 0 0
413 0 5 0 8.593981098313135 0.1436780725061968 -21.451975229435355 0 0 0
446 0 5 0 10.631477890983618 6.152694549672407 -21.339572335089606 0 0 0
445 0 5 0 8.602945787978435 4.133923851805707 -21.342530186154026 0 0 0
414 0 5 0 10.629992039203794 2.1146376720284645 -21.445171990925342 0 0 0
160 0 5 0 8.648269379140958 2.163876534638577 -23.380843500587797 0 0 0
191 0 5 0 10.711237563576324 4.210006994964476 -23.335694396676796 0 0 0
192 0 5 0 8.68795042351035 6.221208214780968 -23.271361560841154 0 0 0
189 0 5 0 8.623739205689123 4.155038125996578 -25.292256956623113 0 0 0
158 0 5 0 10.697575444160657 2.179802067401981 -25.365414907831834 0 0 0
190 0 5 0 10.635325680822152 6.199653695961257 -25.293908269315935 0 0 0
157 0 5 0 8.619551777548045 0.18936590869150002 -25.326444969781917 0 0 0
453 0 5 0 -15.599810769549252 8.169353710054324 -21.357776410993598 0 0 0
199 0 5 0 -13.659693427908556 8.142930148896545 -23.334334206681934 0 0 0
486 0 5 0 -13.51694443759514 14.137637237822814 -21.363320667158945 0 0 0
485 0 5 0 -15.589365326974784 12.204511888419296 -21.340110935325626 0 0 0
454 0 5 0 -13.608653222047073 10.2372643962209 -21.374136708243615 0 0 0
200 0 5 0 -15.627706032719018 10.258849251939937 -23.289023664959295 0 0 0
231 0 5 0 -13.66423635462698 12.2473087411239 -23.381495733562833 0 0 0
232 0 5 0 -15.556420117915923 14.279442751588492 -23.328957347595658 0 0 0
197 0 5 0 -15.692171489819216 8.221369008692132 -25.36905572729413 0 0 0
230 0 5 0 -13.5980173803664 14.177864240034427 -25.311356851318983 0 0 0
198 0 5 0 -13.609568436897602 10.261167902635092 -25.287276073909233 0 0 0
229 0 5 0 -15.619768309259328 12.214975411809528 -25.46037651565095 0 0 0
201 0 5 0 -11.528459783339443 8.272762176549554 -25.296338704961485 0 0 0
489 0 5 0 -11.608390810703586 12.159370343939223 -21.35435932379019 0 0 0
457 0 5 0 -11.566077772567548 8.15437129786156 -21.415894294337296 0 0 0
204 0 5 0 -11.584698618295196 10.210271508132127 -23.326042265525967 0 0 0
236 0 5 0 -11.590079448358056 14.235845743511785 -23.387546122668113 0 0 0
233 0 5 0 -11.646829928336539 12.17777027484015 -25.456634446381702 0 0 0
458 0 5 0 -9.546225307077954 10.218679660925668 -21.419894040537173 0 0 0
490 0 5 0 -9.620170639976578 14.201406578139746 -21.40619915240541 0 0 0
203 0 5 0 -9.518365773343278 8.125831632314963 -23.335947214041404 0 0 0
235 0 5 0 -9.565781613735666 12.219357216890597 -23.37616694941809 0 0 0
234 0 5 0 -9.625113834977405 14.254861233363508 -25.292778012923527 0 0 0
202 0 5 0 -9.45808290591137 10.243300406829876 -25.35089570805683 0 0 0
207 0 5 0 -5.457103487169671 8.14126077988394 -23.36524653739493 0 0 0
461 0 5 0 -7.566809489948904 8.125014096095686 -21.411420207515068 0 0 0
462 0 5 0 -5.548491869642234 10.163500464636535 -21.402662157014877 0 0 0
493 0 5 0 -7.556139602337451 12.089567209701253 -21.399624057758697 0 0 0
494 0 5 0 -5.590721668844629 14.258195357880773 -21.38460145768672 0 0 0
239 0 5 0 -5.53642137505038 12.251740008115195 -23.35443207764009 0 0 0
208 0 5 0 -7.560476000380363 10.137407601361293 -23.38885265044824 0 0 0
240 0 5 0 -7.541812892327002 14.175586099553735 -23.28138026254737 0 0 0
238 0 5 0 -5.594397084149907 14.215486028656253 -25.3451845996095 0 0 0
206 0 5 0 -5.524857361628041 10.266545937791358 -25.391370261361786 0 0 0
205 0 5 0 -7.459742006692804 8.135067620494238 -25.364174631988284 0 0 0
237 0 5 0 -7.487213799793595 12.223567661354899 -25.229998668134755 0 0 0
244 0 5 0 -3.513793702942376 14.315101231409178 -23.359936220924077 0 0 0
497 0 5 0 -3.477874231353001 12.320094589328022 -21.430418670972703 0 0 0
465 0 5 0 -3.4859766931123812 8.190692490942643 -21.360298368654576 0 0 0
212 0 5 0 -3.463127552572291 10.24580280442046 -23.35194809507208 0 0 0
241 0 5 0 -3.5728864098445507 12.286128159104724 -25.365741807537816 0 0 0
209 0 5 0 -3.4779317953858713 8.243711892457684 -25.437743033070607 0 0 0
466 0 5 0 -1.4912372375526943 10.15198282490013 -21.27852082610837 0 0 0
498 0 5 0 -1.4438780088494387 14.301277011376108 -21.37035234416677 0 0 0
211 0 5 0 -1.5176172899444973 8.229260817044867 -23.388876697999738 0 0 0
243 0 5 0 -1.432986389689824 12.219397326928414 -23.29328111679713 0 0 0
242 0 5 0 -1.464694136412008 14.2282585276945 -25.35477131746806 0 0 0
210 0 5 0 -1.4776633756361583 10.326036227420547 -25.330875948659052 0 0 0
215 0 5 0 2.5335198233728087 8.19766488527659 -23.33373040181769 0 0 0
469 0 5 0 0.520097917689121 8.172117707905917 -21.354740599372022 0 0 0
470 0 5 0 2.572509477604317 10.152312308168446 -21.30574049532196 0 0 0
501 0 5 0 0.5895987493032959 12.238974556471192 -21.339753101611418 0 0 0
502 0 5 0 2.607573612482508 14.330643238279308 -21.338955485547782 0 0 0
248 0 5 0 0.5749278073610515 14.232165683644734 -23.33306219059657 0 0 0
247 0 5 0 2.5525034998566722 12.16137056865487 -23.26521728105778 0 0 0
216 0 5 0 0.4861021502138012 10.199880584773396 -23.252071759345032 0 0 0
214 0 5 0 2.605025654309561 10.189186202190198 -25.312686491665456 0 0 0
213 0 5 0 0.5704091083017033 8.349050938767922 -25.405054363333225 0 0 0
245 0 5 0 0.5371935962781555 12.195794271846248 -25.282044961242914 0 0 0
246 0 5 0 2.5723106935299485 14.253413044166733 -25.286126905562035 0 0 0
505 0 5 0 4.649243006528334 12.207621649611085 -21.36190955830214 0 0 0
473 0 5 0 4.531804184366815 8.193920307237981 -21.390560424950564 0 0 0
220 0 5 0 4.559949019519935 10.188044627940958 -23.28071732714814 0 0 0
252 0 5 0 4.582392865983544 14.235495962675046 -23.299566199758825 0 0 0
217 0 5 0 4.6217097152332105 8.197513903563667 -25.315971654724404 0 0 0
249 0 5 0 4.5512905722210455 12.281553236444807 -25.2671636930219 0 0 0
219 0 5 0 6.603503270470413 8.187628142161223 -23.319364359227855 0 0 0
474 0 5 0 6.54843747404677 10.230393643257154 -21.31132440433139 0 0 0
506 0 5 0 6.645676410356222 14.252681030105878 -21.42629173563566 0 0 0
251 0 5 0 6.548427463070816 12.192633029472454 -23.379001168704725 0 0 0
250 0 5 0 6.561508114975246 14.265141275735196 -25.299710889671125 0 0 0
218 0 5 0 6.550428022182205 10.241260685739325 -25.311126017487236 0 0 0
226 0 5 0 14.765768960589828 14.30718660498553 -25.249002777965078 -1 0 0
194 0 5 0 14.655692666090562 10.207064108591494 -25.44174235025953 -1 0 0
195 0 5 0 14.692711341737073 8.245498728613274 -23.344407330144957 -1 0 0
482 0 5 0 14.639468973727379 14.284399260253046 -21.347061361008674 -1 0 0
450 0 5 0 14.677868638595804 10.265623477804727 -21.369196370439298 -1 0 0
227 0 5 0 14.7174726884428 12.275446658853253 -23.36265944147488 -1 0 0
449 0 5 0 12.669880602469114 8.224588175556951 -21.378844014536394 -1 0 0
196 0 5 0 12.7394821856211 10.248914545132523 -23.352301236151153 -1 0 0
481 0 5 0 12.587001762876529 12.22214959929669 -21.430362165220085 -1 0 0
228 0 5 0 12.642758173096443 14.19181976351542 -23.359781444472752 -1 0 0
193 0 5 0 12.605484768767699 8.239262692884381 -25.42303436478848 -1 0 0
225 0 5 0 12.658949819935913 12.220348089424517 -25.355833321540555 -1 0 0
477 0 5 0 8.714585941735123 8.193917906603176 -21.292037336946198 0 0 0
223 0 5 0 10.611109962961763 8.174570774858573 -23.31328949265538 0 0 0
478 0 5 0 10.62033447359794 10.201762732266415 -21.312828374121416 0 0 0
509 0 5 0 8.614672831137632 12.199735980364398 -21.397357488398427 0 0 0
510 0 5 0 10.67221326448602 14.197727253091687 -21.40781643542219 0 0 0
224 0 5 0 8.59435973012007 10.180881195617383 -23.29800317274497 0 0 0
256 0 5 0 8.623341413248264 14.209656890490498 -23.418652048316442 0 0 0
255 0 5 0 10.62225638694094 12.25675307299843 -23.34127315823488 0 0 0
222 0 5 0 10.65411075150669 10.264312484969421 -25.39295954546902 0 0 0
253 0 5 0 8.4825541346898 12.197457850801502 -25.345176600103013 0 0 0
254 0 5 0 10.634348854164287 14.187024683080434 -25.448078117180426 0 0 0
221 0 5 0 8.585660797879926 8.270409720050896 -25.37758914674982 0 0 0
264 0 5 0 -15.587772871295025 -13.979239322505952 -19.384899973277527 0 0 0
295 0 5 0 -13.601075914546733 -11.999118797742666 -19.389934447339837 0 0 0
296 0 5 0 -15.633879192509614 -9.895012594903061 -19.51266812129796 0 0 0
263 0 5 0 -13.57666657564928 -16.075451861980497 -19.481058650761867 0 0 0
531 0 5 0 -15.655425386753517 -11.958043583110213 -17.428155905551197 0 0 0
516 0 5 0 -13.596085063258167 -14.069663503145783 -17.469689142419444 0 0 0
532 0 5 0 -13.677528383758133 -9.993289984898823 -17.503148982085897 0 0 0
515 0 5 0 -15.551352191419662 -16.065560724890986 -17.45881227524591 0 0 0
1312 11 2 0.5564 -13.860298131221446 -11.966078233752944 -14.110893471399892 0 0 0
1524 82 1 -1.1128 -15.645354626643952 -9.794450116219103 -15.190168790808427 0 0 0
1526 82 2 0.5564 -15.397436598707097 -9.80617393773092 -14.265706202384617 0 0 0
1313 11 2 0.5564 -13.024695134607548 -11.315394868950229 -15.1926854833256 0 0 0
1310 10 2 0.5564 -14.713117496472707 -14.761159547376414 -14.45055429456172 0 0 0
1309 10 2 0.5564 -15.398851255528221 -13.483573630109303 -14.885799851014292 0 0 0
1311 11 1 -1.1128 -13.72598006141343 -11.952916651067815 -15.058531215743566 0 0 0
1308 10 1 -1.1128 -15.430862198170797 -14.434219526646487 -14.992942258419989 0 0 0
1525 82 2 0.5564 -15.28769030633085 -10.608378011101752 -15.544893282488733 0 0 0