LAMMPS data file via write_data, version 2 Aug 2023, timestep = 50000, units = real

3126 atoms
7 atom types
2105 bonds
6 bond types
1138 angles
9 angle types
135 dihedrals
3 dihedral types

-13.279025223632559 61.75582097680575 xlo xhi
-12.119198938293296 12.119198938293296 ylo yhi
-12.119198938293296 12.119198938293296 zlo zhi

Masses

1 15.9994
2 1.008
3 12.011
4 15.9994
5 1.008
6 15.9994
7 1.008

Pair Coeffs # lj/cut/coul/long

1 0.119432 3.40025
2 0 0
3 0.252656 2.84916
4 0.0663016 3.58118
5 0.0282937 2.37341
6 0 0
7 0.119497 3.1

Bond Coeffs # harmonic

1 442.161 0.972
2 1109.29 1.12
3 399.792 1.43
4 400.034 1.53
5 179.254 0.971
6 155.354 1.42

Angle Coeffs # harmonic

1 47.5559 103
2 30.1731 109.5
3 47.694 109.5
4 55.1139 111
5 65.472 111.3
6 54.9931 110.3
7 55.0234 111.4
8 180.46 109
9 30.1731 110

Dihedral Coeffs # harmonic

1 0.301147 1 3
2 1.41491 1 3
3 0 1 1

Atoms # full

2717 906 2 0.413 -7.122992471335779 -10.666851728054972 -3.1665430916659254 1 0 0
2718 906 2 0.413 -8.248512928146727 -11.454185701305004 -2.5123553792420346 1 0 0
322 108 1 -0.826 -12.009589088222619 10.199862833265593 -1.5286056847174923 0 -1 0
2716 906 1 -0.826 -7.305053465316862 -11.245412213151038 -2.4069994700828747 1 0 0
324 108 2 0.413 -12.342496878982429 10.999946726728952 -1.0883510009126844 0 -1 0
1007 336 2 0.413 -8.263788630447724 -11.891552956601583 -6.241514154849752 0 1 1
152 51 2 0.413 -8.147225907606217 -7.988423260386196 -4.698276076869959 0 0 0
2155 719 1 -0.826 -6.609740609739184 -10.434140114227597 -5.251464489486802 1 -1 0
2157 719 2 0.413 -6.333167645935727 -11.042076189184844 -5.95765665675887 1 -1 0
233 78 2 0.413 -11.66718762729664 -9.676956602844742 -9.01072700566139 0 0 -1
232 78 1 -0.826 -11.377217849590732 -8.83467416765466 -9.399653078003118 0 0 -1
234 78 2 0.413 -11.918372423835574 -8.178677748603473 -8.92889864932103 0 0 -1
2156 719 2 0.413 -6.526362494872375 -9.560719188740494 -5.6697569990078724 1 -1 0
323 108 2 0.413 -11.048149005585568 10.263956036034708 -1.400827969526702 0 -1 0
677 226 2 0.413 -7.929519240321563 -3.473088063336988 -8.946241600920112 0 0 1
1024 342 1 -0.826 -4.857741383555119 -7.848907109318715 -3.040284921806938 0 0 0
1276 426 1 -0.826 -12.678573935691562 11.24563643658051 -11.47203266993935 0 -1 1
9 3 2 0.413 -13.186756334240227 3.767586852339255 -6.640026094446682 0 -1 0
506 169 2 0.413 -13.126183789244458 -3.900217932553538 -10.741630451423589 0 0 1
1025 342 2 0.413 -4.746199107598002 -7.852915905525882 -4.005855518490003 0 0 0
153 51 2 0.413 -9.033694912651274 -9.213193164105228 -4.528702956956846 0 0 0
676 226 1 -0.826 -7.5239972227291805 -4.148007931845512 -8.376309895895488 0 0 1
1000 334 1 -0.826 -6.151719945125195 -7.164622527968704 -5.939210204602734 0 0 1
54 18 2 0.413 -6.290922373359924 5.656222038138713 -9.496617873003729 0 0 -1
1026 342 2 0.413 -5.6842024194863585 -7.352182693847523 -2.917709477952503 0 0 0
2257 753 1 -0.826 -13.152095325189977 -10.993287683324326 -4.942570643172216 1 0 0
373 125 1 -0.826 -6.275269508014392 -10.044262812891969 -11.395653530772947 0 1 0
151 51 1 -0.826 -9.077526316606402 -8.266359006094246 -4.74403458687961 0 0 0
1001 334 2 0.413 -6.369082815493397 -6.242529370313717 -5.721764124624494 0 0 1
505 169 1 -0.826 -12.274378104758682 -3.887228202520406 -10.27359526871282 0 0 1
1006 336 1 -0.826 -8.981030949026918 11.736888070469691 -6.000040412449261 0 0 1
2762 921 2 0.413 -13.131017918336191 -4.772594099850463 -6.778918254230743 1 1 -1
2994 998 2 0.413 -10.222103416319253 -5.647991708711163 -7.856801105138776 1 1 0
2992 998 1 -0.826 -9.50398997828815 -6.303045556385683 -7.85335928590905 1 1 0
2761 921 1 -0.826 -12.631616041397011 -4.777366015771332 -7.612802915451437 1 1 -1
1246 416 1 -0.826 -8.2838597691734 5.907099591250782 -10.80020267333927 0 -1 1
3121 1041 1 -0.826 -6.232913601727396 -11.24193177334755 -7.9971463335586375 1 1 0
2997 999 2 0.413 -13.150970946506488 6.3656677971498485 -6.021574717245791 1 0 1
3122 1041 2 0.413 -5.499335795118613 -10.912248468216903 -8.543010627921742 1 1 0
3137 1046 2 0.413 4.278338776919274 8.146622456289512 -2.8806790670885842 1 -1 1
312 104 2 0.413 -2.984007908200608 -10.702766503228112 -8.708344625784944 0 1 1
926 309 2 0.413 -4.738727291919236 10.617546733075402 -3.5586728185625507 0 0 0
2499 833 2 0.413 4.02250205332777 -3.2101112952959667 -8.80001849191244 1 1 -1
840 280 2 0.413 -11.56230677760093 -6.37784433610497 -5.34611439510004 0 0 1
839 280 2 0.413 -11.11716346417137 -7.671281818676519 -6.012071211281629 0 0 1
2996 999 2 0.413 -12.803325153839108 7.193604006436692 -7.249701294341534 1 0 1
4 2 1 -0.826 -4.2971381600186955 -1.9493386375999275 -3.289762901429164 0 0 0
678 226 2 0.413 -6.760184413594423 -4.445232032254541 -8.89884524319754 0 0 1
6 2 2 0.413 -4.111542177182647 -2.7558481216425914 -2.7799767947728657 0 0 0
1008 336 2 0.413 -8.533586423124525 10.874550406219994 -5.969140461339823 0 0 1
2993 998 2 0.413 -8.70867470443283 -5.755056870048535 -7.743912423749864 1 1 0
556 186 1 -0.826 -4.1686427831364465 1.6833462143824196 -11.347166861985558 0 0 -1
577 193 1 -0.826 -3.780503047775772 -8.063727558447482 -11.967682895778726 0 2 0
579 193 2 0.413 -4.42115219114511 -7.333367400087149 -11.998258493425025 0 2 0
2647 883 1 -0.826 -12.080871182234528 2.566471869840882 -3.7112334002244047 1 -1 0
498 166 2 0.413 -8.59303690104269 -10.446619535622084 -0.32066810862757045 0 0 1
838 280 1 -0.826 -11.915025394862688 -7.210693506419734 -5.702117707605318 0 0 1
649 217 1 -0.826 -7.7515594752554895 -8.542406488949533 -9.291391894375764 0 0 0
826 276 1 -0.826 -4.2180340724214105 -11.332380314582235 -1.7288586391131755 0 1 0
459 153 2 0.413 5.328464588025376 8.006742012630793 -9.66960307556803 0 0 1
954 318 2 0.413 -3.4614033491857548 -7.644882394038171 -1.559615508248438 0 1 0
2498 833 2 0.413 4.343542210110453 -2.1844881305824657 -9.876893904602468 1 1 -1
1253 418 2 0.413 -0.6454234432934758 -5.928246027314026 -6.571003952957738 0 0 1
375 125 2 0.413 -6.298400240868225 -9.861911354839355 -10.44119176383995 0 1 0
310 104 1 -0.826 -3.7733703178635682 -10.428772878791825 -9.204964076408958 0 1 1
311 104 2 0.413 -3.788848559804082 -11.050951262300474 -9.951582352850247 0 1 1
745 249 1 -0.826 -1.2595559938725014 -6.75375078130919 -3.4751406616254297 0 0 -1
746 249 2 0.413 -0.5440128397145063 -7.409707573867653 -3.4250198446917928 0 0 -1
1002 334 2 0.413 -6.102586067931075 -7.154617148767682 -6.9099160608344805 0 0 1
1254 418 2 0.413 -1.3837697845232562 -6.168817496588326 -7.879288682601116 0 0 1
1252 418 1 -0.826 -1.0311067803574598 -6.641691425364539 -7.106756592561222 0 0 1
107 36 2 0.413 -0.9808632431636202 -4.813402754385538 -2.776311116884127 0 -1 0
1421 474 2 0.413 -0.4448060750063352 -11.247914566518956 -8.874845488354783 0 0 1
3131 1044 2 0.413 1.9627436496123547 -5.471738192162279 -5.61529337632833 1 1 0
66 22 2 0.413 -4.822529222399636 9.423161275277684 -5.4674991026530995 0 -1 -1
3132 1044 2 0.413 1.7966213102227222 -6.117554576819811 -6.982755584558626 1 1 0
327 109 2 0.413 -10.176668826054167 -11.880560593166532 -4.295645583146612 0 1 -2
747 249 2 0.413 -1.2621921787823354 -6.504409953269395 -4.414611880951401 0 0 -1
3130 1044 1 -0.826 1.6472883931628974 -5.2790988348681145 -6.514272708801656 1 1 0
31 11 1 -0.826 4.150666012066171 -8.639833908217774 -3.407823498618768 0 -1 0
32 11 2 0.413 4.220261522740369 -8.985380521605796 -4.313659206517569 0 -1 0
28 10 1 -0.826 1.2700314937690376 -8.366763145983219 -1.686779435178055 0 0 1
30 10 2 0.413 0.9384995602439279 -9.191771009956918 -2.0795068706282382 0 0 1
155 52 2 0.413 0.23668717328426503 -9.59871434728048 -7.075302651193174 0 -1 1
1366 456 1 -0.826 -1.1138620512328252 -8.400444601121784 -10.803128266415351 0 0 -1
29 10 2 0.413 2.0430287859763183 -8.662435530020389 -1.1770265566919775 0 0 1
662 221 2 0.413 3.0193555167751107 -6.860255517678295 -3.7942217554702555 0 1 -1
850 284 1 -0.826 2.7643209092475374 -11.372856625604287 -1.9282645019993705 0 -1 0
209 70 2 0.413 -13.007342228051625 8.594023531918763 -0.562430072230347 0 -1 0
3007 1003 1 -0.826 5.187266953550896 -8.886817359434907 -6.486834328860676 1 0 0
3112 1038 1 -0.826 3.290211951219792 -11.37171805918729 -9.427140550314675 1 1 1
2649 883 2 0.413 -12.713124417514987 2.379974835182267 -2.9969040180820112 1 -1 0
164 55 2 0.413 -7.497509931928286 2.000593749641107 -0.1259353545753399 0 -1 0
3113 1038 2 0.413 3.146499199579477 11.984379263986034 -9.045464379647065 1 0 1
925 309 1 -0.826 -5.572471067675215 10.257465077026025 -3.212247917167195 0 0 0
851 284 2 0.413 2.3358962254552953 -11.855039319740444 -1.2011193941279696 0 -1 0
557 186 2 0.413 -3.3696520430034216 1.9516766228012248 -11.831325043208347 0 0 -1
852 284 2 0.413 2.2660189490433833 -11.66707935242963 -2.709236210519025 0 -1 0
903 301 2 0.413 -3.252357990684958 10.248076494167508 -0.48843379949566135 0 0 -1
3114 1038 2 0.413 2.446129010584583 -10.920283805864113 -9.258234671072383 1 1 1
793 265 1 -0.826 -1.6378730074066006 -4.557647842524377 -9.311782328773429 0 1 0
794 265 2 0.413 -1.3301917596487147 -4.393628113699975 -10.219094791241625 0 1 0
1368 456 2 0.413 -2.01146494526842 -8.194077333674086 -11.1138078439137 0 0 -1
106 36 1 -0.826 -0.49933125362402464 -3.991124762208317 -2.5845434963951153 0 -1 0
2945 982 2 0.413 2.625631168103709 -2.833760341649942 -11.196403165907274 1 1 0
1422 474 2 0.413 -0.22968498147638527 -9.993411241730092 -9.708256271636932 0 0 1
1420 474 1 -0.826 0.1872562040158794 -10.52133679839406 -9.006656258751887 0 0 1
661 221 1 -0.826 2.2465669988821944 -6.270888408562649 -3.8097266472959372 0 1 -1
108 36 2 0.413 -1.1801974011645147 -3.428624870588111 -2.1785777608398185 0 -1 0
476 159 2 0.413 -6.712842710434819 1.2226023969533468 -9.7063407948082 0 -1 1
1367 456 2 0.413 -0.5621958728315555 -7.766832695589802 -11.291994414169787 0 0 -1
658 220 1 -0.826 -2.1306883502865137 -3.3245395542063196 -5.1434953458967465 0 -1 0
659 220 2 0.413 -2.8469520380092526 -2.9805885675082173 -4.583622133397467 0 -1 0
663 221 2 0.413 1.7722246569897653 -6.5108268014683865 -2.995959039243722 0 1 -1
795 265 2 0.413 -1.0767228404927884 -3.9679094176721605 -8.780642024490804 0 1 0
325 109 1 -0.826 -10.202680072194696 -11.369955459216696 -3.468971395772803 0 1 -2
927 309 2 0.413 -6.103373147093413 11.05485631980637 -3.047628174533031 0 0 0
154 52 1 -0.826 0.2557998579377685 -8.913093805767366 -6.386576697389981 0 -1 1
156 52 2 0.413 -0.4910556366566219 -8.339761124603456 -6.628014961009237 0 -1 1
2497 833 1 -0.826 3.6785171036633066 -2.8508866756446896 -9.635134472978065 1 1 -1
651 217 2 0.413 -8.652621033798155 -8.28995462123824 -9.554367603790512 0 0 0
3057 1019 2 0.413 -0.7539442809590007 -12.071849074931569 -4.209948423440794 1 0 0
847 283 1 -0.826 -3.872854740503316 -4.41319693486984 -1.9186433524297009 0 -1 -1
578 193 2 0.413 -4.174918774450854 -8.673642629070013 -11.321752320596778 0 2 0
33 11 2 0.413 3.501320298077431 -9.234577451567185 -2.9962135718733194 0 -1 0
425 142 2 0.413 5.249319186194178 -10.464521929325779 -10.014415402331158 0 1 1
970 324 1 -0.826 -0.8882696505549283 -11.20342788410395 -1.048644196323501 0 0 0
2763 921 2 0.413 -11.812217567907473 -4.309375882144457 -7.379631765528089 1 1 -1
3086 1029 2 0.413 -12.594316312230168 -1.6415891638669713 -11.150266677140024 1 -1 1
1112 371 2 0.413 5.073109944249001 2.9299148476098846 -7.750344861990072 0 -1 -1
576 192 2 0.413 -5.730086413790729 -3.8345045364963823 -6.372869935688443 0 0 -1
507 169 2 0.413 -12.515316882116228 -4.163439240268885 -9.373349682739887 0 0 1
487 163 1 -0.826 -6.747558074637004 -2.8712216735656764 -0.724174258059822 0 1 0
2783 928 2 0.413 -4.524013166819293 8.592686561414402 -11.863550653566332 1 -1 1
788 263 2 0.413 -9.87488005914577 -4.966943045343439 -4.52907907890803 0 0 1
789 263 2 0.413 -10.322437751708541 -6.057386947905212 -3.5671775320371317 0 0 1
787 263 1 -0.826 -10.345818768344959 -5.093235915819432 -3.6882135761674792 0 0 1
477 159 2 0.413 -6.617696382530171 2.120464026907392 -10.930848862840794 0 -1 1
2779 927 1 -0.826 -10.378043026525278 -1.9920631517584049 -3.500134994949118 1 -1 0
574 192 1 -0.826 -6.3686098615091105 -3.960236977068968 -5.6508793318991515 0 0 -1
902 301 2 0.413 -2.570945827386794 10.784804505927157 -1.7383284001465267 0 0 -1
461 154 2 0.413 5.14113269632708 -11.531646032882906 -5.924959504647238 0 0 2
2765 922 2 0.413 -11.95734113639766 4.391579299464434 -0.48376544345628325 1 -1 0
2357 786 2 0.413 -3.6744892792969157 -4.346652178725743 -9.45931435646481 1 -1 1
702 234 2 0.413 4.899059848412396 -7.788045270468786 -0.14159593865060494 0 -1 0
2784 928 2 0.413 -3.1014788371336834 9.037043793948412 -11.557591776896723 1 -1 1
1113 371 2 0.413 4.614757333634298 1.8656942254327138 -6.76445449108354 0 -1 -1
2601 867 2 0.413 -7.295489093522455 -5.668849413818283 -1.558598924833758 1 0 0
2600 867 2 0.413 -7.072934254713415 -4.695389266493738 -2.706411550095476 1 0 0
2599 867 1 -0.826 -6.963655748291443 -5.6322159953241995 -2.4714685552440763 1 0 0
575 192 2 0.413 -6.053303802301073 -3.342302969209925 -4.970052127076729 0 0 -1
2781 927 2 0.413 -9.93053141686698 -2.010111473804292 -2.6374675208414367 1 -1 0
870 290 2 0.413 -9.270621325159018 -3.204619997902208 -6.440909008712268 0 0 -1
868 290 1 -0.826 -10.162092971112056 -3.5106777449004856 -6.203408019315789 0 0 -1
683 228 2 0.413 -9.12976607327717 0.873589596897407 -7.650089338368505 0 0 1
684 228 2 0.413 -8.901256061843345 1.7758908641706128 -8.853527906476979 0 0 1
682 228 1 -0.826 -9.59649851986756 1.2623057372649917 -8.408936439411974 0 0 1
820 274 1 -0.826 -8.434230912138705 0.834431061410724 -3.9069187009436153 0 1 1
1359 453 2 0.413 -2.5489207820552515 3.5858987034677714 -8.894652197410927 0 0 1
1357 453 1 -0.826 -2.7634499539554795 2.639186147980203 -8.94462775697538 0 0 1
475 159 1 -0.826 -7.235334523686433 1.8537078455338687 -10.229310552980964 0 -1 1
580 194 1 -0.826 5.040046066372614 4.936496584251641 -8.962918045492136 0 -1 -1
1544 515 2 0.413 -9.28203488188779 2.329557195369013 -11.178574693014848 0 0 1
701 234 2 0.413 4.91369963978406 -8.693549251113405 -1.3640836441040616 0 -1 0
2842 948 1 -0.826 -0.7336425387302441 -3.8119218081775177 -12.100523315624434 1 0 1
869 290 2 0.413 -10.62780322621073 -2.6842248405720337 -5.991565023101636 0 0 -1
2356 786 1 -0.826 -4.593127792046987 -4.051046718983862 -9.57559716214578 1 -1 1
2358 786 2 0.413 -4.530413773491652 -3.4304295770412754 -10.32104047762453 1 -1 1
274 92 1 -0.826 -11.853390622978356 0.20698234598607712 -5.5386737777943615 0 0 0
757 253 1 -0.826 -6.184190001184786 0.03323502761345232 -2.2980998359018425 0 -1 1
2780 927 2 0.413 -10.675044886768589 -2.910833791998545 -3.6116526355142344 1 -1 0
758 253 2 0.413 -6.98257430013027 0.34781700425645035 -2.7546274147363743 0 -1 1
759 253 2 0.413 -6.136387257780311 0.6110844637267796 -1.517978704927538 0 -1 1
821 274 2 0.413 -8.691149907396225 1.7512392949819198 -3.7113664120677843 0 1 1
822 274 2 0.413 -9.288079247949074 0.3961441185902572 -4.060690480694625 0 1 1
276 92 2 0.413 -12.064223401150246 -0.4485246737702191 -4.852638050903622 0 0 0
1256 419 2 0.413 3.4533155586188187 -11.868694117102265 -11.752570646898786 0 0 1
275 92 2 0.413 -11.77598567231843 1.034232268595515 -5.03424347994302 0 0 0
5 2 2 0.413 -4.775231555891374 -1.3928287739943563 -2.6521795462187985 0 0 0
2782 928 1 -0.826 -3.959021089523519 8.881470950432492 -11.127223450709666 1 -1 1
2448 816 2 0.413 -3.898012768818594 -0.5002029423022059 -4.748686426302245 1 0 0
463 155 1 -0.826 0.6803627009255084 8.786640430157574 -2.319757155515541 0 -1 0
3085 1029 1 -0.826 -12.463197917581622 -0.7175128716011958 -10.87883472683049 1 -1 1
3087 1029 2 0.413 -11.556698784979544 -0.5292057137575696 -11.17480752541222 1 -1 1
52 18 1 -0.826 -6.009878770267597 5.932159316756257 -8.607990670794202 0 0 -1
2 1 2 0.413 -7.227074774630804 1.2985858638637584 -5.417088607947498 0 -1 -1
1 1 1 -0.826 -6.854934172992836 1.0236371997177471 -6.271899549256448 0 -1 -1
3 1 2 0.413 -5.946468428763996 0.765492145687448 -6.042003967042013 0 -1 -1
2648 883 2 0.413 -12.643827306610104 2.942009878494188 -4.408974296100365 1 -1 0
326 109 2 0.413 -10.966936982789557 -10.78343438727149 -3.598199465049179 0 1 -2
1247 416 2 0.413 -8.358008629321452 6.792989548343138 -11.193248406000073 0 -1 1
650 217 2 0.413 -7.570904694096299 -7.955015476102767 -8.53831796913305 0 0 0
286 96 1 -0.826 -1.7089783889500438 0.5690106360689668 -0.9998512835775273 0 0 0
2553 851 2 0.413 5.3243488351109605 10.626851140733377 -1.974798787466229 0 0 1
287 96 2 0.413 -1.276565058873416 0.7933755655151433 -0.15874082526210387 0 0 0
2180 727 2 0.413 -10.085386257459142 -8.152726439394318 -11.910668617967753 1 -2 -2
480 160 2 0.413 2.4938663964030514 2.6336548934354713 -8.926828040068495 0 0 1
1448 483 2 0.413 -10.235383263093082 -3.909162461069677 -10.692111574792376 1 1 -1
2805 935 2 0.413 1.2386965032081267 -3.1246122360154214 -2.6736430720396367 1 -2 0
252 84 2 0.413 0.8526749074729736 -2.987531847561364 -7.6537556016981965 0 -1 0
478 160 1 -0.826 1.592930639324491 2.735868119259756 -8.5765888982228 0 0 1
1427 476 2 0.413 -5.055632763142842 11.195592813152535 -11.816747012455878 0 -1 1
479 160 2 0.413 1.098991889923317 3.0786110991718747 -9.340356569824033 0 0 1
1545 515 2 0.413 -9.90974248184681 1.0493402463763672 -11.709294014792627 0 0 1
524 175 2 0.413 3.5012251008742226 1.3815102187511847 -11.186066471217302 0 0 2
938 313 2 0.413 3.9133955771867406 -3.206639269365203 -0.8488050040906057 0 0 0
652 218 1 -0.826 4.8423654758554875 -0.09264713280444958 -5.266916432015343 0 0 0
1358 453 2 0.413 -2.6363545554293424 2.3375794019000065 -8.029387807671682 0 0 1
750 250 2 0.413 -1.7508062444565784 -0.6228646517759202 -8.970565181135912 0 -1 0
660 220 2 0.413 -1.336137004763339 -2.922993056672304 -4.753309336816813 0 -1 0
523 175 1 -0.826 3.761539699996426 1.8840243511978603 -10.395812206018077 0 0 2
251 84 2 0.413 1.0657359529753325 -2.302528041802409 -8.995397748654014 0 -1 0
2807 936 2 0.413 2.889264736914811 2.0932281570613185 -4.631116702183453 1 1 1
2804 935 2 0.413 2.5654584356051533 -3.767439674030042 -3.049327178449227 1 -2 0
2803 935 1 -0.826 2.198149227631861 -2.9964462242589462 -2.5851719196483423 1 -2 0
250 84 1 -0.826 0.3603549553933405 -2.5901323818302515 -8.39164695607074 0 -1 0
241 81 1 -0.826 1.677012484891394 1.0664538821327714 -0.866440877550005 0 0 1
57 19 2 0.413 2.4219912617188495 -1.2116024710528333 -3.2274619805895846 0 -1 1
3008 1003 2 0.413 5.080069761812052 -8.107130344410667 -7.057256221181887 1 0 0
1863 621 2 0.413 1.6236810217766742 10.090415244500528 -0.623097445993583 1 0 0
732 244 2 0.413 -4.346141927213482 -1.0213770403864952 -11.82271457389144 0 -1 0
56 19 2 0.413 3.1977799306801558 -0.10209649928754594 -3.9215716892443684 0 -1 1
1020 340 2 0.413 -3.4291848209223765 2.1588425661598656 -4.083207034030588 0 0 0
749 250 2 0.413 -1.9646287874258839 -1.7067536981440536 -7.924575850531208 0 -1 0
748 250 1 -0.826 -2.3597835155387337 -0.884282666463486 -8.259510444783146 0 -1 0
1447 483 1 -0.826 -9.29362579021084 -3.6916957027607538 -10.79508192621954 1 1 -1
1277 426 2 0.413 -12.226106270932215 12.016354743510375 -11.85420349134718 0 -1 1
255 85 2 0.413 0.08199920919417458 0.7417590536091083 -10.672775101108256 0 0 1
254 85 2 0.413 -0.760601121536677 1.6285937280005527 -11.577314271585195 0 0 1
2754 918 2 0.413 -0.9295099147105823 -0.02712009314224062 -2.9750200359271055 1 -1 0
2752 918 1 -0.826 -0.5604393627952753 -0.2564485984380589 -3.844492343080642 1 -1 0
2753 918 2 0.413 0.39201623980237166 -0.10368842166529824 -3.724932111042653 1 -1 0
3110 1037 2 0.413 -0.11104076215322145 1.802584785491124 -5.249339463777473 1 0 0
3111 1037 2 0.413 0.35927531967270454 1.9687616074109098 -6.686635561368114 1 0 0
3109 1037 1 -0.826 0.24140505410465884 2.4697571336397086 -5.862078468474886 1 0 0
253 85 1 -0.826 -0.7759517052825888 0.7663072690112518 -11.128972622004472 0 0 1
1184 395 2 0.413 -2.175564134262407 4.206253116427002 -5.177790873218097 0 0 2
665 222 2 0.413 -7.496614498266003 10.198770003490685 -10.122730738455672 0 -2 0
2446 816 1 -0.826 -4.103426586261245 0.17978521140167736 -5.412166928139123 1 0 0
242 81 2 0.413 1.8403345192770608 2.013652156023362 -1.0110976281741397 0 0 1
730 244 1 -0.826 -4.077969946806185 -1.587071634931858 -11.079169793475456 0 -1 0
1018 340 1 -0.826 -3.655006850596326 2.561759256027843 -3.2279598973233448 0 0 0
2447 816 2 0.413 -3.575729020528648 -0.09740347567176677 -6.179949994923752 1 0 0
243 81 2 0.413 2.0079881443844485 0.6599978969714062 -1.6849975529851697 0 0 1
55 19 1 -0.826 2.3684369865706376 -0.26497692879575574 -3.441510890556918 0 -1 1
1019 340 2 0.413 -4.57888171995697 2.290265989230816 -3.095492974487277 0 0 0
288 96 2 0.413 -2.183820201598529 -0.2525540236203536 -0.789267541894306 0 0 0
982 328 1 -0.826 2.9938100156083713 3.7852631978429905 -0.5272945221968683 0 0 1
983 328 2 0.413 3.911531438314732 3.8156243053386785 -0.20844320045273612 0 0 1
2808 936 2 0.413 2.398119905969603 2.9946984390050897 -5.75395263998327 1 1 1
2806 936 1 -0.826 3.199502314769088 2.5489248383035097 -5.4316659678700425 1 1 1
1492 498 1 -0.826 4.873492651015148 8.287608539501102 -11.717312770686243 0 1 0
827 276 2 0.413 -4.003369535961058 -10.836375794048811 -2.536746943015965 0 1 0
1371 457 2 0.413 -1.6835268444810065 3.5392006357911434 -2.5027039535631967 0 -1 1
2534 845 2 0.413 3.5004261797856344 3.668527820850258 -11.810864102147333 0 0 2
1183 395 1 -0.826 -2.240357972771349 3.8862300873031668 -6.093307809995674 0 0 2
1185 395 2 0.413 -1.3933328549483566 3.428034559823976 -6.225230751909437 0 0 2
525 175 2 0.413 4.682052913550493 1.6062056765297132 -10.25342867165598 0 0 2
953 318 2 0.413 -2.0541669139568484 -7.331399620681776 -1.0737332964689479 0 1 0
664 222 1 -0.826 -7.816382402242821 9.849109699084563 -10.971419173394251 0 -2 0
849 283 2 0.413 -3.5160773603716233 -5.215825820767634 -1.5023695371200674 0 -1 -1
3123 1041 2 0.413 -6.247205366097284 12.046179296356021 -8.200948007928373 1 0 0
972 324 2 0.413 -0.14874278304799482 -11.833260357027331 -1.013931299360376 0 0 0
1503 501 2 0.413 -12.730771373984288 -7.134487651621665 -0.9777629870220537 0 0 1
971 324 2 0.413 -1.4582786158668242 -11.494951236344585 -0.3172793642848255 0 0 0
569 190 2 0.413 -5.336366297161396 9.684277692275545 -9.288814120538627 0 -1 1
828 276 2 0.413 -5.189684056114054 -11.356807467229876 -1.7389597545067161 0 1 0
818 273 2 0.413 -9.4487462893834 4.134198076444752 -4.553928530595322 0 1 0
819 273 2 0.413 -10.235429573299959 3.3426621888818833 -3.5198879218898007 0 1 0
817 273 1 -0.826 -9.392776201598295 3.8124265410676337 -3.638442125710542 0 1 0
653 218 2 0.413 5.008200916811827 0.5359254373982321 -5.989536378870837 0 0 0
3055 1019 1 -0.826 -1.5604950778193931 11.793182952442445 -3.8164119721372654 1 -1 0
465 155 2 0.413 0.5204495173054937 8.336339108140278 -3.1661855766044695 0 -1 0
1377 459 2 0.413 -3.7995064714268576 6.063421198526163 -7.938829889423524 0 0 -1
514 172 1 -0.826 -12.186374730168323 -11.61498975861951 -8.127170322630759 0 1 -1
1278 426 2 0.413 -12.713942952598801 11.460385744967068 -10.524712261369789 0 -1 1
2113 705 1 -0.826 -5.97669722812406 5.192526783103917 -0.678262965228539 1 1 0
782 261 2 0.413 -11.17029603527009 9.39604008956548 -4.366817526241394 0 -1 0
781 261 1 -0.826 -10.590497759645748 8.91283407653028 -4.979301483841802 0 -1 0
670 224 1 -0.826 -10.588875319107197 8.322455971181055 -11.227944341458391 0 -1 0
1325 442 2 0.413 4.656060606196405 -2.0308559791441105 -6.706541427972953 0 0 1
981 327 2 0.413 -5.9699608482658215 5.991178965266874 -4.553562151021427 0 -1 0
516 172 2 0.413 -12.020660318023072 11.97819544494507 -7.419339904517628 0 0 -1
635 212 2 0.413 -11.385606356527315 2.6069271111997594 -8.38657960506525 0 -1 0
848 283 2 0.413 -4.677610446781555 -4.7345110424912 -2.359009494463992 0 -1 -1
666 222 2 0.413 -8.779315301317876 9.812644203392798 -10.844011356460722 0 -2 0
1086 362 2 0.413 1.6349095101566018 6.996522336933955 -6.260253127770618 0 0 0
125 42 2 0.413 -10.272442873838198 5.813771368603641 -6.292030562456034 0 -1 -1
2179 727 1 -0.826 -9.971647395986114 -7.215328962383498 -11.680162583325624 1 -2 -2
1449 483 2 0.413 -8.874105152528251 -4.565493528129819 -10.867656603997261 1 1 -1
1047 349 2 0.413 -7.807368638186049 4.484163366723978 -0.8687252447093243 0 -2 0
3136 1046 1 -0.826 4.0779257694186555 8.805823522993967 -2.1950603285647556 1 -1 1
952 318 1 -0.826 -2.9875906235681953 -7.165389793378275 -0.8593459197079625 0 1 0
2218 740 1 -0.826 3.330446552980085 10.340105125675398 -7.214182467815914 1 -1 1
636 212 2 0.413 -12.12096209888583 3.781136419143632 -9.015166758012464 0 -1 0
124 42 1 -0.826 -9.929328958705367 4.90543708329413 -6.247442340430967 0 -1 -1
207 69 2 0.413 -8.533086897032621 8.524336064520517 -6.334663839831458 0 -1 0
1045 349 1 -0.826 -8.56906716119981 3.8823112372567206 -0.819885240037145 0 -2 0
2181 727 2 0.413 -10.331354208785763 -7.166685240978954 -10.778479886873738 1 -2 -2
2912 971 2 0.413 -7.187627155299172 2.8831348424528507 -6.866902021703616 1 0 0
2995 999 1 -0.826 -12.726051713236965 7.200552579025862 -6.280802568379792 1 0 1
582 194 2 0.413 4.089910153047093 4.91528458084675 -9.16686301863504 0 -1 -1
2911 971 1 -0.826 -7.2223603204795115 3.8544511804512673 -6.855839698450897 1 0 0
2913 971 2 0.413 -8.175578407327503 4.0396652220342855 -6.8991187380771395 1 0 0
126 42 2 0.413 -10.428059029859721 4.448797874282006 -6.94568180133496 0 -1 -1
783 261 2 0.413 -11.19085175947977 8.672458331719168 -5.704963681453132 0 -1 0
2844 948 2 0.413 0.08003043769015505 -3.4056285242019566 -11.757507299954518 1 0 1
1046 349 2 0.413 -8.938574854520155 3.9239438924660615 -1.717948647413401 0 -2 0
205 69 1 -0.826 -7.892666489363965 8.186736933185541 -6.98326231396855 0 -1 0
206 69 2 0.413 -7.389846104487524 7.530046603956885 -6.47265602840086 0 -1 0
1543 515 1 -0.826 -9.953671396568192 2.01541152009208 -11.807072526700717 0 0 1
1111 371 1 -0.826 5.173206453265177 1.9838133243148892 -7.55120311985807 0 -1 -1
634 212 1 -0.826 -11.674388945541427 3.514822871290404 -8.193925209412123 0 -1 0
979 327 1 -0.826 -6.811770312662709 6.183427027242045 -4.999875473686905 0 -1 0
671 224 2 0.413 -11.419866506928393 8.78860735687441 -11.420176414737046 0 -1 0
672 224 2 0.413 -10.745379985236434 7.436156624701082 -11.5950459834113 0 -1 0
515 172 2 0.413 -12.99931341821273 -11.171064244366182 -7.832453895816549 0 1 -1
1375 459 1 -0.826 -2.835467637543122 6.185967012134272 -7.918488830851249 0 0 -1
2115 705 2 0.413 -5.964473942652644 5.863271404077404 -1.3816376560722414 1 1 0
2046 682 2 0.413 -6.584440362547714 8.548896914553401 -2.4877109857345925 0 0 0
568 190 1 -0.826 -5.8622897730484675 9.959816514416621 -8.519221498302693 0 -1 1
2044 682 1 -0.826 -7.187562921069435 7.816418833163619 -2.2767359102072877 0 0 0
570 190 2 0.413 -6.304310729006781 9.136900180860364 -8.250493975494338 0 -1 1
980 327 2 0.413 -6.93195287187949 5.413593415107096 -5.580992440512315 0 -1 0
2045 682 2 0.413 -7.429164080210411 7.472733090496911 -3.153259694433043 0 0 0
464 155 2 0.413 -0.05222750869933357 8.472828434829845 -1.7633150869351368 0 -1 0
53 18 2 0.413 -6.337597289677794 5.213168058125339 -8.041917806674975 0 0 -1
457 153 1 -0.826 5.143972014193487 7.873541759773916 -8.72461355290053 0 0 1
462 154 2 0.413 4.068911149881174 11.639259391411672 -5.765423443903083 0 -1 2
64 22 1 -0.826 -4.234356314372921 9.135741669278238 -6.185992837256351 0 -1 -1
65 22 2 0.413 -4.838423529697247 9.052336958242838 -6.942919355153851 0 -1 -1
731 244 2 0.413 -4.016765745494705 -0.9604307781302737 -10.33865688960523 0 -1 0
901 301 1 -0.826 -2.43030931090472 10.167484276525284 -1.0008181460142822 0 0 -1
1324 442 1 -0.826 5.047020623639355 -2.8542595007425575 -7.044097044164969 0 0 1
376 126 1 -0.826 2.143533622115596 6.694287122721056 -9.53820567283686 0 0 1
489 163 2 0.413 -6.952948980794568 -1.9642361937608914 -1.0069755582620825 0 1 0
492 164 2 0.413 1.619249967383725 9.257153531620615 -9.576835562691697 0 -1 1
629 210 2 0.413 0.9864299726255208 -10.299974877447795 -5.205359657632596 0 0 0
1370 457 2 0.413 -1.0138645179618937 2.3988588644171944 -1.750500371147396 0 -1 1
378 126 2 0.413 2.34087312853263 7.0534070548871615 -10.41961069925399 0 0 1
490 164 1 -0.826 1.7661997530890368 10.046729372050036 -10.124339129994596 0 -1 1
2219 740 2 0.413 3.8100767498986805 10.011156149263746 -7.992986765767702 1 -1 1
3138 1046 2 0.413 3.201414852670652 8.531112272051553 -1.8771589790338794 1 -1 1
460 154 1 -0.826 4.575290120307248 -11.946960004888371 -5.252555716251869 0 0 2
2074 692 1 -0.826 0.44147140801084106 4.292633448051562 -10.588690015853974 0 0 1
2076 692 2 0.413 -0.3837702765039541 4.524871899831117 -11.046771850708828 0 0 1
1572 524 2 0.413 3.1318722174019733 6.435950117423369 -4.510628778653411 0 2 0
1084 362 1 -0.826 1.6726780425565586 6.14981671066157 -5.784388583327592 0 0 0
1085 362 2 0.413 1.9110277168527094 5.517016492681018 -6.482628022314963 0 0 0
700 234 1 -0.826 5.413819185374681 -8.50271996269956 -0.5527552963578515 0 -1 0
558 186 2 0.413 -3.8625277116487364 1.6427791749946756 -10.425519571599855 0 0 -1
1257 419 2 0.413 2.9142976854618894 10.970902797120393 -11.492860702202343 0 -1 1
1248 416 2 0.413 -9.167123037933816 5.7612637317730755 -10.421551423971367 0 -1 1
42 14 2 0.413 0.22223959423840078 8.832736051260019 -7.689777966077551 0 -2 1
431 144 2 0.413 -2.674672983156407 5.815664732820002 -2.6119941829156375 0 -1 1
1127 376 2 0.413 -2.469497738038754 11.133312087336217 -9.98857301312628 0 -1 0
1428 476 2 0.413 -5.038487778309996 -11.582278517515093 -11.391075150574908 0 0 1
491 164 2 0.413 0.8640447193371177 10.31694968290847 -10.36495771771836 0 -1 1
2114 705 2 0.413 -5.238817163994549 4.608071598312888 -0.9206249720315878 1 1 0
837 279 2 0.413 -0.9587667203964987 5.374276959939996 -1.0743490593753275 0 -1 0
1126 376 1 -0.826 -1.8940139287479738 11.390042292148324 -9.248506128812295 0 -1 0