ITEM: TIMESTEP
0
ITEM: NUMBER OF ATOMS
680
ITEM: BOX BOUNDS pp pp pp
-2.0965627999999999e+01 5.9034371999999998e+01
-1.9438998999999999e+01 6.0561000999999997e+01
-4.0000000000000000e+01 4.0000000000000000e+01
ITEM: ATOMS id type xs ys zs
1 1 0.26207 0.242987 0.5
2 1 0.24672 0.25185 0.5
3 1 0.24672 0.269575 0.5
4 1 0.26207 0.278437 0.5
5 1 0.292771 0.242987 0.5
6 1 0.277421 0.25185 0.5
7 1 0.277421 0.269575 0.5
8 1 0.292771 0.278437 0.5
69 1 0.26207 0.296162 0.5
73 1 0.292771 0.296162 0.5
9 1 0.323472 0.242987 0.5
10 1 0.308121 0.25185 0.5
11 1 0.308121 0.269575 0.5
12 1 0.323472 0.278437 0.5
13 1 0.354172 0.242987 0.5
14 1 0.338822 0.25185 0.5
15 1 0.338822 0.269575 0.5
16 1 0.354172 0.278437 0.5
17 1 0.384873 0.242987 0.5
18 1 0.369522 0.25185 0.5
19 1 0.369522 0.269575 0.5
20 1 0.384873 0.278437 0.5
77 1 0.323472 0.296162 0.5
81 1 0.354172 0.296162 0.5
85 1 0.384873 0.296162 0.5
21 1 0.415573 0.242987 0.5
22 1 0.400223 0.25185 0.5
23 1 0.400223 0.269575 0.5
24 1 0.415573 0.278437 0.5
25 1 0.446274 0.242987 0.5
26 1 0.430924 0.25185 0.5
27 1 0.430924 0.269575 0.5
28 1 0.446274 0.278437 0.5
29 1 0.476975 0.242987 0.5
30 1 0.461624 0.25185 0.5
31 1 0.461624 0.269575 0.5
32 1 0.476975 0.278437 0.5
34 1 0.492325 0.25185 0.5
35 1 0.492325 0.269575 0.5
89 1 0.415573 0.296162 0.5
93 1 0.446274 0.296162 0.5
97 1 0.476975 0.296162 0.5
33 1 0.507675 0.242987 0.5
36 1 0.507675 0.278437 0.5
37 1 0.538376 0.242987 0.5
38 1 0.523025 0.25185 0.5
39 1 0.523025 0.269575 0.5
40 1 0.538376 0.278437 0.5
41 1 0.569076 0.242987 0.5
42 1 0.553726 0.25185 0.5
43 1 0.553726 0.269575 0.5
44 1 0.569076 0.278437 0.5
45 1 0.599777 0.242987 0.5
46 1 0.584427 0.25185 0.5
47 1 0.584427 0.269575 0.5
48 1 0.599777 0.278437 0.5
101 1 0.507675 0.296162 0.5
105 1 0.538376 0.296162 0.5
109 1 0.569076 0.296162 0.5
113 1 0.599777 0.296162 0.5
49 1 0.630478 0.242987 0.5
50 1 0.615127 0.25185 0.5
51 1 0.615127 0.269575 0.5
52 1 0.630478 0.278437 0.5
53 1 0.661178 0.242987 0.5
54 1 0.645828 0.25185 0.5
55 1 0.645828 0.269575 0.5
56 1 0.661178 0.278437 0.5
57 1 0.691879 0.242987 0.5
58 1 0.676528 0.25185 0.5
59 1 0.676528 0.269575 0.5
60 1 0.691879 0.278437 0.5
117 1 0.630478 0.296162 0.5
121 1 0.661178 0.296162 0.5
125 1 0.691879 0.296162 0.5
61 1 0.722579 0.242987 0.5
62 1 0.707229 0.25185 0.5
63 1 0.707229 0.269575 0.5
64 1 0.722579 0.278437 0.5
65 1 0.75328 0.242987 0.5
66 1 0.73793 0.25185 0.5
67 1 0.73793 0.269575 0.5
68 1 0.75328 0.278437 0.5
129 1 0.722579 0.296162 0.5
133 1 0.75328 0.296162 0.5
70 1 0.24672 0.305025 0.5
71 1 0.24672 0.32275 0.5
72 1 0.26207 0.331612 0.5
74 1 0.277421 0.305025 0.5
75 1 0.277421 0.32275 0.5
76 1 0.292771 0.331612 0.5
137 1 0.26207 0.349337 0.5
138 1 0.24672 0.3582 0.5
139 1 0.24672 0.375925 0.5
140 1 0.26207 0.384787 0.5
141 1 0.292771 0.349337 0.5
142 1 0.277421 0.3582 0.5
143 1 0.277421 0.375925 0.5
144 1 0.292771 0.384787 0.5
78 1 0.308121 0.305025 0.5
79 1 0.308121 0.32275 0.5
80 1 0.323472 0.331612 0.5
82 1 0.338822 0.305025 0.5
83 1 0.338822 0.32275 0.5
84 1 0.354172 0.331612 0.5
86 1 0.369522 0.305025 0.5
87 1 0.369522 0.32275 0.5
88 1 0.384873 0.331612 0.5
145 1 0.323472 0.349337 0.5
146 1 0.308121 0.3582 0.5
147 1 0.308121 0.375925 0.5
148 1 0.323472 0.384787 0.5
149 1 0.354172 0.349337 0.5
150 1 0.338822 0.3582 0.5
151 1 0.338822 0.375925 0.5
152 1 0.354172 0.384787 0.5
153 1 0.384873 0.349337 0.5
154 1 0.369522 0.3582 0.5
155 1 0.369522 0.375925 0.5
156 1 0.384873 0.384787 0.5
90 1 0.400223 0.305025 0.5
91 1 0.400223 0.32275 0.5
92 1 0.415573 0.331612 0.5
94 1 0.430924 0.305025 0.5
95 1 0.430924 0.32275 0.5
96 1 0.446274 0.331612 0.5
98 1 0.461624 0.305025 0.5
99 1 0.461624 0.32275 0.5
100 1 0.476975 0.331612 0.5
102 1 0.492325 0.305025 0.5
103 1 0.492325 0.32275 0.5
157 1 0.415573 0.349337 0.5
158 1 0.400223 0.3582 0.5
159 1 0.400223 0.375925 0.5
160 1 0.415573 0.384787 0.5
161 1 0.446274 0.349337 0.5
162 1 0.430924 0.3582 0.5
163 1 0.430924 0.375925 0.5
164 1 0.446274 0.384787 0.5
165 1 0.476975 0.349337 0.5
166 1 0.461624 0.3582 0.5
167 1 0.461624 0.375925 0.5
168 1 0.476975 0.384787 0.5
170 1 0.492325 0.3582 0.5
171 1 0.492325 0.375925 0.5
104 1 0.507675 0.331612 0.5
106 1 0.523025 0.305025 0.5
107 1 0.523025 0.32275 0.5
108 1 0.538376 0.331612 0.5
110 1 0.553726 0.305025 0.5
111 1 0.553726 0.32275 0.5
112 1 0.569076 0.331612 0.5
114 1 0.584427 0.305025 0.5
115 1 0.584427 0.32275 0.5
116 1 0.599777 0.331612 0.5
169 1 0.507675 0.349337 0.5
172 1 0.507675 0.384787 0.5
173 1 0.538376 0.349337 0.5
174 1 0.523025 0.3582 0.5
175 1 0.523025 0.375925 0.5
176 1 0.538376 0.384787 0.5
177 1 0.569076 0.349337 0.5
178 1 0.553726 0.3582 0.5
179 1 0.553726 0.375925 0.5
180 1 0.569076 0.384787 0.5
181 1 0.599777 0.349337 0.5
182 1 0.584427 0.3582 0.5
183 1 0.584427 0.375925 0.5
184 1 0.599777 0.384787 0.5
118 1 0.615127 0.305025 0.5
119 1 0.615127 0.32275 0.5
120 1 0.630478 0.331612 0.5
122 1 0.645828 0.305025 0.5
123 1 0.645828 0.32275 0.5
124 1 0.661178 0.331612 0.5
126 1 0.676528 0.305025 0.5
127 1 0.676528 0.32275 0.5
128 1 0.691879 0.331612 0.5
185 1 0.630478 0.349337 0.5
186 1 0.615127 0.3582 0.5
187 1 0.615127 0.375925 0.5
188 1 0.630478 0.384787 0.5
189 1 0.661178 0.349337 0.5
190 1 0.645828 0.3582 0.5
191 1 0.645828 0.375925 0.5
192 1 0.661178 0.384787 0.5
193 1 0.691879 0.349337 0.5
194 1 0.676528 0.3582 0.5
195 1 0.676528 0.375925 0.5
196 1 0.691879 0.384787 0.5
130 1 0.707229 0.305025 0.5
131 1 0.707229 0.32275 0.5
132 1 0.722579 0.331612 0.5
134 1 0.73793 0.305025 0.5
135 1 0.73793 0.32275 0.5
136 1 0.75328 0.331612 0.5
197 1 0.722579 0.349337 0.5
198 1 0.707229 0.3582 0.5
199 1 0.707229 0.375925 0.5
200 1 0.722579 0.384787 0.5
201 1 0.75328 0.349337 0.5
202 1 0.73793 0.3582 0.5
203 1 0.73793 0.375925 0.5
204 1 0.75328 0.384787 0.5
205 1 0.26207 0.402512 0.5
206 1 0.24672 0.411375 0.5
207 1 0.24672 0.4291 0.5
208 1 0.26207 0.437962 0.5
209 1 0.292771 0.402512 0.5
210 1 0.277421 0.411375 0.5
211 1 0.277421 0.4291 0.5
212 1 0.292771 0.437962 0.5
273 1 0.26207 0.455688 0.5
274 1 0.24672 0.46455 0.5
275 1 0.24672 0.482275 0.5
276 1 0.26207 0.491137 0.5
277 1 0.292771 0.455688 0.5
278 1 0.277421 0.46455 0.5
279 1 0.277421 0.482275 0.5
280 1 0.292771 0.491137 0.5
213 1 0.323472 0.402512 0.5
214 1 0.308121 0.411375 0.5
215 1 0.308121 0.4291 0.5
216 1 0.323472 0.437962 0.5
217 1 0.354172 0.402512 0.5
218 1 0.338822 0.411375 0.5
219 1 0.338822 0.4291 0.5
220 1 0.354172 0.437962 0.5
221 1 0.384873 0.402512 0.5
222 1 0.369522 0.411375 0.5
223 1 0.369522 0.4291 0.5
224 1 0.384873 0.437962 0.5
281 1 0.323472 0.455688 0.5
282 1 0.308121 0.46455 0.5
283 1 0.308121 0.482275 0.5
284 1 0.323472 0.491137 0.5
285 1 0.354172 0.455688 0.5
286 1 0.338822 0.46455 0.5
287 1 0.338822 0.482275 0.5
288 1 0.354172 0.491137 0.5
289 1 0.384873 0.455688 0.5
290 1 0.369522 0.46455 0.5
291 1 0.369522 0.482275 0.5
292 1 0.384873 0.491137 0.5
225 1 0.415573 0.402512 0.5
226 1 0.400223 0.411375 0.5
227 1 0.400223 0.4291 0.5
228 1 0.415573 0.437962 0.5
229 1 0.446274 0.402512 0.5
230 1 0.430924 0.411375 0.5
231 1 0.430924 0.4291 0.5
232 1 0.446274 0.437962 0.5
233 1 0.476975 0.402512 0.5
234 1 0.461624 0.411375 0.5
235 1 0.461624 0.4291 0.5
236 1 0.476975 0.437962 0.5
238 1 0.492325 0.411375 0.5
239 1 0.492325 0.4291 0.5
293 1 0.415573 0.455688 0.5
294 1 0.400223 0.46455 0.5
295 1 0.400223 0.482275 0.5
296 1 0.415573 0.491137 0.5
297 1 0.446274 0.455688 0.5
298 1 0.430924 0.46455 0.5
299 1 0.430924 0.482275 0.5
300 1 0.446274 0.491137 0.5
301 1 0.476975 0.455688 0.5
302 1 0.461624 0.46455 0.5
303 1 0.461624 0.482275 0.5
304 1 0.476975 0.491137 0.5
306 1 0.492325 0.46455 0.5
307 1 0.492325 0.482275 0.5
237 1 0.507675 0.402512 0.5
240 1 0.507675 0.437962 0.5
241 1 0.538376 0.402512 0.5
242 1 0.523025 0.411375 0.5
243 1 0.523025 0.4291 0.5
244 1 0.538376 0.437962 0.5
245 1 0.569076 0.402512 0.5
246 1 0.553726 0.411375 0.5
247 1 0.553726 0.4291 0.5
248 1 0.569076 0.437962 0.5
249 1 0.599777 0.402512 0.5
250 1 0.584427 0.411375 0.5
251 1 0.584427 0.4291 0.5
252 1 0.599777 0.437962 0.5
305 1 0.507675 0.455688 0.5
308 1 0.507675 0.491137 0.5
309 1 0.538376 0.455688 0.5
310 1 0.523025 0.46455 0.5
311 1 0.523025 0.482275 0.5
312 1 0.538376 0.491137 0.5
313 1 0.569076 0.455688 0.5
314 1 0.553726 0.46455 0.5
315 1 0.553726 0.482275 0.5
316 1 0.569076 0.491137 0.5
317 1 0.599777 0.455688 0.5
318 1 0.584427 0.46455 0.5
319 1 0.584427 0.482275 0.5
320 1 0.599777 0.491137 0.5
253 1 0.630478 0.402512 0.5
254 1 0.615127 0.411375 0.5
255 1 0.615127 0.4291 0.5
256 1 0.630478 0.437962 0.5
257 1 0.661178 0.402512 0.5
258 1 0.645828 0.411375 0.5
259 1 0.645828 0.4291 0.5
260 1 0.661178 0.437962 0.5
261 1 0.691879 0.402512 0.5
262 1 0.676528 0.411375 0.5
263 1 0.676528 0.4291 0.5
264 1 0.691879 0.437962 0.5
321 1 0.630478 0.455688 0.5
322 1 0.615127 0.46455 0.5
323 1 0.615127 0.482275 0.5
324 1 0.630478 0.491137 0.5
325 1 0.661178 0.455688 0.5
326 1 0.645828 0.46455 0.5
327 1 0.645828 0.482275 0.5
328 1 0.661178 0.491137 0.5
329 1 0.691879 0.455688 0.5
330 1 0.676528 0.46455 0.5
331 1 0.676528 0.482275 0.5
332 1 0.691879 0.491137 0.5
265 1 0.722579 0.402512 0.5
266 1 0.707229 0.411375 0.5
267 1 0.707229 0.4291 0.5
268 1 0.722579 0.437962 0.5
269 1 0.75328 0.402512 0.5
270 1 0.73793 0.411375 0.5
271 1 0.73793 0.4291 0.5
272 1 0.75328 0.437962 0.5
333 1 0.722579 0.455688 0.5
334 1 0.707229 0.46455 0.5
335 1 0.707229 0.482275 0.5
336 1 0.722579 0.491137 0.5
337 1 0.75328 0.455688 0.5
338 1 0.73793 0.46455 0.5
339 1 0.73793 0.482275 0.5
340 1 0.75328 0.491137 0.5
341 1 0.26207 0.508862 0.5
342 1 0.24672 0.517725 0.5
343 1 0.24672 0.53545 0.5
344 1 0.26207 0.544313 0.5
345 1 0.292771 0.508862 0.5
346 1 0.277421 0.517725 0.5
347 1 0.277421 0.53545 0.5
348 1 0.292771 0.544313 0.5
409 1 0.26207 0.562037 0.5
410 1 0.24672 0.5709 0.5
411 1 0.24672 0.588625 0.5
412 1 0.26207 0.597488 0.5
413 1 0.292771 0.562037 0.5
414 1 0.277421 0.5709 0.5
415 1 0.277421 0.588625 0.5
416 1 0.292771 0.597488 0.5
349 1 0.323472 0.508862 0.5
350 1 0.308121 0.517725 0.5
351 1 0.308121 0.53545 0.5
352 1 0.323472 0.544313 0.5
353 1 0.354172 0.508862 0.5
354 1 0.338822 0.517725 0.5
355 1 0.338822 0.53545 0.5
356 1 0.354172 0.544313 0.5
357 1 0.384873 0.508862 0.5
358 1 0.369522 0.517725 0.5
359 1 0.369522 0.53545 0.5
360 1 0.384873 0.544313 0.5
417 1 0.323472 0.562037 0.5
418 1 0.308121 0.5709 0.5
419 1 0.308121 0.588625 0.5
420 1 0.323472 0.597488 0.5
421 1 0.354172 0.562037 0.5
422 1 0.338822 0.5709 0.5
423 1 0.338822 0.588625 0.5
424 1 0.354172 0.597488 0.5
425 1 0.384873 0.562037 0.5
426 1 0.369522 0.5709 0.5
427 1 0.369522 0.588625 0.5
428 1 0.384873 0.597488 0.5
361 1 0.415573 0.508862 0.5
362 1 0.400223 0.517725 0.5
363 1 0.400223 0.53545 0.5
364 1 0.415573 0.544313 0.5
365 1 0.446274 0.508862 0.5
366 1 0.430924 0.517725 0.5
367 1 0.430924 0.53545 0.5
368 1 0.446274 0.544313 0.5
369 1 0.476975 0.508862 0.5
370 1 0.461624 0.517725 0.5
371 1 0.461624 0.53545 0.5
372 1 0.476975 0.544313 0.5
374 1 0.492325 0.517725 0.5
375 1 0.492325 0.53545 0.5
429 1 0.415573 0.562037 0.5
430 1 0.400223 0.5709 0.5
431 1 0.400223 0.588625 0.5
432 1 0.415573 0.597488 0.5
433 1 0.446274 0.562037 0.5
434 1 0.430924 0.5709 0.5
435 1 0.430924 0.588625 0.5
436 1 0.446274 0.597488 0.5
437 1 0.476975 0.562037 0.5
438 1 0.461624 0.5709 0.5
439 1 0.461624 0.588625 0.5
440 1 0.476975 0.597488 0.5
442 1 0.492325 0.5709 0.5
443 1 0.492325 0.588625 0.5
373 1 0.507675 0.508862 0.5
376 1 0.507675 0.544313 0.5
377 1 0.538376 0.508862 0.5
378 1 0.523025 0.517725 0.5
379 1 0.523025 0.53545 0.5
380 1 0.538376 0.544313 0.5
381 1 0.569076 0.508862 0.5
382 1 0.553726 0.517725 0.5
383 1 0.553726 0.53545 0.5
384 1 0.569076 0.544313 0.5
385 1 0.599777 0.508862 0.5
386 1 0.584427 0.517725 0.5
387 1 0.584427 0.53545 0.5
388 1 0.599777 0.544313 0.5
441 1 0.507675 0.562037 0.5
444 1 0.507675 0.597488 0.5
445 1 0.538376 0.562037 0.5
446 1 0.523025 0.5709 0.5
447 1 0.523025 0.588625 0.5
448 1 0.538376 0.597488 0.5
449 1 0.569076 0.562037 0.5
450 1 0.553726 0.5709 0.5
451 1 0.553726 0.588625 0.5
452 1 0.569076 0.597488 0.5
453 1 0.599777 0.562037 0.5
454 1 0.584427 0.5709 0.5
455 1 0.584427 0.588625 0.5
456 1 0.599777 0.597488 0.5
389 1 0.630478 0.508862 0.5
390 1 0.615127 0.517725 0.5
391 1 0.615127 0.53545 0.5
392 1 0.630478 0.544313 0.5
393 1 0.661178 0.508862 0.5
394 1 0.645828 0.517725 0.5
395 1 0.645828 0.53545 0.5
396 1 0.661178 0.544313 0.5
397 1 0.691879 0.508862 0.5
398 1 0.676528 0.517725 0.5
399 1 0.676528 0.53545 0.5
400 1 0.691879 0.544313 0.5
457 1 0.630478 0.562037 0.5
458 1 0.615127 0.5709 0.5
459 1 0.615127 0.588625 0.5
460 1 0.630478 0.597488 0.5
461 1 0.661178 0.562037 0.5
462 1 0.645828 0.5709 0.5
463 1 0.645828 0.588625 0.5
464 1 0.661178 0.597488 0.5
465 1 0.691879 0.562037 0.5
466 1 0.676528 0.5709 0.5
467 1 0.676528 0.588625 0.5
468 1 0.691879 0.597488 0.5
401 1 0.722579 0.508862 0.5
402 1 0.707229 0.517725 0.5
403 1 0.707229 0.53545 0.5
404 1 0.722579 0.544313 0.5
405 1 0.75328 0.508862 0.5
406 1 0.73793 0.517725 0.5
407 1 0.73793 0.53545 0.5
408 1 0.75328 0.544313 0.5
469 1 0.722579 0.562037 0.5
470 1 0.707229 0.5709 0.5
471 1 0.707229 0.588625 0.5
472 1 0.722579 0.597488 0.5
473 1 0.75328 0.562037 0.5
474 1 0.73793 0.5709 0.5
475 1 0.73793 0.588625 0.5
476 1 0.75328 0.597488 0.5
477 1 0.26207 0.615212 0.5
478 1 0.24672 0.624075 0.5
479 1 0.24672 0.6418 0.5
480 1 0.26207 0.650662 0.5
481 1 0.292771 0.615212 0.5
482 1 0.277421 0.624075 0.5
483 1 0.277421 0.6418 0.5
484 1 0.292771 0.650662 0.5
545 1 0.26207 0.668388 0.5
546 1 0.24672 0.67725 0.5
547 1 0.24672 0.694975 0.5
549 1 0.292771 0.668388 0.5
550 1 0.277421 0.67725 0.5
551 1 0.277421 0.694975 0.5
485 1 0.323472 0.615212 0.5
486 1 0.308121 0.624075 0.5
487 1 0.308121 0.6418 0.5
488 1 0.323472 0.650662 0.5
489 1 0.354172 0.615212 0.5
490 1 0.338822 0.624075 0.5
491 1 0.338822 0.6418 0.5
492 1 0.354172 0.650662 0.5
493 1 0.384873 0.615212 0.5
494 1 0.369522 0.624075 0.5
495 1 0.369522 0.6418 0.5
496 1 0.384873 0.650662 0.5
553 1 0.323472 0.668388 0.5
554 1 0.308121 0.67725 0.5
555 1 0.308121 0.694975 0.5
557 1 0.354172 0.668388 0.5
558 1 0.338822 0.67725 0.5
559 1 0.338822 0.694975 0.5
561 1 0.384873 0.668388 0.5
562 1 0.369522 0.67725 0.5
563 1 0.369522 0.694975 0.5
497 1 0.415573 0.615212 0.5
498 1 0.400223 0.624075 0.5
499 1 0.400223 0.6418 0.5
500 1 0.415573 0.650662 0.5
501 1 0.446274 0.615212 0.5
502 1 0.430924 0.624075 0.5
503 1 0.430924 0.6418 0.5
504 1 0.446274 0.650662 0.5
505 1 0.476975 0.615212 0.5
506 1 0.461624 0.624075 0.5
507 1 0.461624 0.6418 0.5
508 1 0.476975 0.650662 0.5
510 1 0.492325 0.624075 0.5
511 1 0.492325 0.6418 0.5
565 1 0.415573 0.668388 0.5
566 1 0.400223 0.67725 0.5
567 1 0.400223 0.694975 0.5
569 1 0.446274 0.668388 0.5
570 1 0.430924 0.67725 0.5
571 1 0.430924 0.694975 0.5
573 1 0.476975 0.668388 0.5
574 1 0.461624 0.67725 0.5
575 1 0.461624 0.694975 0.5
578 1 0.492325 0.67725 0.5
579 1 0.492325 0.694975 0.5
509 1 0.507675 0.615212 0.5
512 1 0.507675 0.650662 0.5
513 1 0.538376 0.615212 0.5
514 1 0.523025 0.624075 0.5
515 1 0.523025 0.6418 0.5
516 1 0.538376 0.650662 0.5
517 1 0.569076 0.615212 0.5
518 1 0.553726 0.624075 0.5
519 1 0.553726 0.6418 0.5
520 1 0.569076 0.650662 0.5
521 1 0.599777 0.615212 0.5
522 1 0.584427 0.624075 0.5
523 1 0.584427 0.6418 0.5
524 1 0.599777 0.650662 0.5
577 1 0.507675 0.668388 0.5
581 1 0.538376 0.668388 0.5
582 1 0.523025 0.67725 0.5
583 1 0.523025 0.694975 0.5
585 1 0.569076 0.668388 0.5
586 1 0.553726 0.67725 0.5
587 1 0.553726 0.694975 0.5
589 1 0.599777 0.668388 0.5
590 1 0.584427 0.67725 0.5
591 1 0.584427 0.694975 0.5
525 1 0.630478 0.615212 0.5
526 1 0.615127 0.624075 0.5
527 1 0.615127 0.6418 0.5
528 1 0.630478 0.650662 0.5
529 1 0.661178 0.615212 0.5
530 1 0.645828 0.624075 0.5
531 1 0.645828 0.6418 0.5
532 1 0.661178 0.650662 0.5
533 1 0.691879 0.615212 0.5
534 1 0.676528 0.624075 0.5
535 1 0.676528 0.6418 0.5
536 1 0.691879 0.650662 0.5
593 1 0.630478 0.668388 0.5
594 1 0.615127 0.67725 0.5
595 1 0.615127 0.694975 0.5
597 1 0.661178 0.668388 0.5
598 1 0.645828 0.67725 0.5
599 1 0.645828 0.694975 0.5
601 1 0.691879 0.668388 0.5
602 1 0.676528 0.67725 0.5
603 1 0.676528 0.694975 0.5
537 1 0.722579 0.615212 0.5
538 1 0.707229 0.624075 0.5
539 1 0.707229 0.6418 0.5
540 1 0.722579 0.650662 0.5
541 1 0.75328 0.615212 0.5
542 1 0.73793 0.624075 0.5
543 1 0.73793 0.6418 0.5
544 1 0.75328 0.650662 0.5
605 1 0.722579 0.668388 0.5
606 1 0.707229 0.67725 0.5
607 1 0.707229 0.694975 0.5
609 1 0.75328 0.668388 0.5
610 1 0.73793 0.67725 0.5
611 1 0.73793 0.694975 0.5
548 1 0.26207 0.703837 0.5
552 1 0.292771 0.703837 0.5
613 1 0.26207 0.721562 0.5
614 1 0.24672 0.730425 0.5
615 1 0.24672 0.74815 0.5
616 1 0.26207 0.757013 0.5
617 1 0.292771 0.721562 0.5
618 1 0.277421 0.730425 0.5
619 1 0.277421 0.74815 0.5
620 1 0.292771 0.757013 0.5
556 1 0.323472 0.703837 0.5
560 1 0.354172 0.703837 0.5
564 1 0.384873 0.703837 0.5
621 1 0.323472 0.721562 0.5
622 1 0.308121 0.730425 0.5
623 1 0.308121 0.74815 0.5
624 1 0.323472 0.757013 0.5
625 1 0.354172 0.721562 0.5
626 1 0.338822 0.730425 0.5
627 1 0.338822 0.74815 0.5
628 1 0.354172 0.757013 0.5
629 1 0.384873 0.721562 0.5
630 1 0.369522 0.730425 0.5
631 1 0.369522 0.74815 0.5
632 1 0.384873 0.757013 0.5
568 1 0.415573 0.703837 0.5
572 1 0.446274 0.703837 0.5
576 1 0.476975 0.703837 0.5
633 1 0.415573 0.721562 0.5
634 1 0.400223 0.730425 0.5
635 1 0.400223 0.74815 0.5
636 1 0.415573 0.757013 0.5
637 1 0.446274 0.721562 0.5
638 1 0.430924 0.730425 0.5
639 1 0.430924 0.74815 0.5
640 1 0.446274 0.757013 0.5
641 1 0.476975 0.721562 0.5
642 1 0.461624 0.730425 0.5
643 1 0.461624 0.74815 0.5
644 1 0.476975 0.757013 0.5
646 1 0.492325 0.730425 0.5
647 1 0.492325 0.74815 0.5
580 1 0.507675 0.703837 0.5
584 1 0.538376 0.703837 0.5
588 1 0.569076 0.703837 0.5
592 1 0.599777 0.703837 0.5
645 1 0.507675 0.721562 0.5
648 1 0.507675 0.757013 0.5
649 1 0.538376 0.721562 0.5
650 1 0.523025 0.730425 0.5
651 1 0.523025 0.74815 0.5
652 1 0.538376 0.757013 0.5
653 1 0.569076 0.721562 0.5
654 1 0.553726 0.730425 0.5
655 1 0.553726 0.74815 0.5
656 1 0.569076 0.757013 0.5
657 1 0.599777 0.721562 0.5
658 1 0.584427 0.730425 0.5
659 1 0.584427 0.74815 0.5
660 1 0.599777 0.757013 0.5
596 1 0.630478 0.703837 0.5
600 1 0.661178 0.703837 0.5
604 1 0.691879 0.703837 0.5
661 1 0.630478 0.721562 0.5
662 1 0.615127 0.730425 0.5
663 1 0.615127 0.74815 0.5
664 1 0.630478 0.757013 0.5
665 1 0.661178 0.721562 0.5
666 1 0.645828 0.730425 0.5
667 1 0.645828 0.74815 0.5
668 1 0.661178 0.757013 0.5
669 1 0.691879 0.721562 0.5
670 1 0.676528 0.730425 0.5
671 1 0.676528 0.74815 0.5
672 1 0.691879 0.757013 0.5
608 1 0.722579 0.703837 0.5
612 1 0.75328 0.703837 0.5
673 1 0.722579 0.721562 0.5
674 1 0.707229 0.730425 0.5
675 1 0.707229 0.74815 0.5
676 1 0.722579 0.757013 0.5
677 1 0.75328 0.721562 0.5
678 1 0.73793 0.730425 0.5
679 1 0.73793 0.74815 0.5
680 1 0.75328 0.757013 0.5
