LAMMPS data file via write_data, version 20 Nov 2019, timestep = 500000

3000 atoms
5 atom types

-2.9170186243615554e+01 2.8903319529831045e+01 xlo xhi
-7.9370052598409968e+00 7.9370052598409968e+00 ylo yhi
-7.9370052598409968e+00 7.9370052598409968e+00 zlo zhi

Masses

1 1
2 1
3 1
4 1
5 1

PairIJ Coeffs # lj/cut

1 1 1 1 2.5
1 2 1 1 2.5
1 3 1 1 2.5
1 4 0.8 1 2.5
1 5 1.41421 1.73205 2.5
2 2 1 1 2.5
2 3 1 1 2.5
2 4 0.8 1 2.5
2 5 0.1 3 2.5
3 3 1 1 2.5
3 4 0.8 1 2.5
3 5 1.41421 1.73205 2.5
4 4 1 1 2.5
4 5 1.41421 1.73205 2.5
5 5 2 3 2.5

Atoms # atomic

1 1 -2.9163522029790705e+01 -7.9370052598409968e+00 -7.9370052598409968e+00 0 0 0
2 1 -2.8391476515729316e+01 -7.1433047338568976e+00 -7.9370052598409968e+00 0 0 0
3 1 -2.8391476515729316e+01 -7.9370052598409968e+00 -7.1433047338568976e+00 0 0 0
4 1 -2.9163522029790705e+01 -7.1433047338568976e+00 -7.1433047338568976e+00 0 0 0
5 1 -2.7619431001667891e+01 -7.9370052598409968e+00 -7.9370052598409968e+00 0 0 0
6 1 -2.7619431001667891e+01 -7.1433047338568976e+00 -7.1433047338568976e+00 0 0 0
1415 4 -2.6133608126893538e+01 -5.8713260575383330e+00 -7.1756620906679647e+00 0 1 0
1880 4 -2.6615000417434064e+01 -6.8466805156094024e+00 -6.1615345411132791e+00 0 2 0
1903 4 -2.5028708929751939e+01 -7.6289070499512075e+00 -7.2635834935758092e+00 0 2 1
2205 4 -2.5552411520897159e+01 -7.5613949559235332e+00 -6.3318287165091371e+00 0 -1 -1
2357 4 -2.6633290988718009e+01 -7.2967475757124660e+00 -7.7471983587035007e+00 0 0 3
2296 4 -2.3508913246146719e+01 -7.7037459669382944e+00 7.1737377128914632e+00 0 -1 -2
1744 4 -2.4289950321649279e+01 7.6786321725883813e+00 -6.7673413360477319e+00 0 -1 0
2376 4 -2.4381596147211951e+01 -6.8142332647676884e+00 -7.1432047591041661e+00 0 2 3
1750 4 -2.4268618787780188e+01 7.7018077858098435e+00 -7.7878451782245044e+00 0 -2 1
2365 4 -2.2481597512453842e+01 -7.0296585162107146e+00 -6.5220188120147711e+00 0 1 1
7 1 -2.9163522029790705e+01 -6.3496042078727974e+00 -7.9370052598409968e+00 0 0 0
8 1 -2.8391476515729316e+01 -5.5559036818886982e+00 -7.9370052598409968e+00 0 0 0
9 1 -2.8391476515729316e+01 -6.3496042078727974e+00 -7.1433047338568967e+00 0 0 0
10 1 -2.9163522029790705e+01 -5.5559036818886973e+00 -7.1433047338568976e+00 0 0 0
11 1 -2.7619431001667891e+01 -6.3496042078727974e+00 -7.9370052598409968e+00 0 0 0
12 1 -2.7619431001667891e+01 -5.5559036818886973e+00 -7.1433047338568976e+00 0 0 0
2319 4 -2.6887632211823192e+01 -4.8493976403733789e+00 -5.5269788661880206e+00 0 0 1
1434 4 -2.5532429914925626e+01 -5.5131175453021131e+00 7.0840574421703524e+00 0 0 -1
1946 4 -2.5320606139750840e+01 -5.2546327472586372e+00 -7.0572191608928021e+00 0 -1 1
1911 4 -2.5746971533172079e+01 -6.7755593395433884e+00 -7.0046962643437460e+00 0 -1 1
1529 4 -2.4882274021326541e+01 -4.5393132615628993e+00 -7.8481502561241916e+00 0 2 1
1737 4 -2.3576295690557650e+01 -6.4398197198556471e+00 -6.6243773125983383e+00 0 3 1
1577 4 -2.3920176917900662e+01 -4.9398794059532936e+00 -7.9301332004338176e+00 0 1 1
1696 4 -2.1800676376685960e+01 -5.5772066922620196e+00 7.6154137168138405e+00 0 -1 0
2114 4 -2.2201760018604318e+01 -6.3356201517698070e+00 -7.2645712268608706e+00 0 0 0
13 1 -2.9163522029790705e+01 -4.7622031559045981e+00 -7.9370052598409968e+00 0 0 0
14 1 -2.8391476515729316e+01 -3.9685026299204984e+00 -7.9370052598409968e+00 0 0 0
15 1 -2.8391476515729316e+01 -4.7622031559045981e+00 -7.1433047338568976e+00 0 0 0
16 1 -2.9163522029790705e+01 -3.9685026299204984e+00 -7.1433047338568976e+00 0 0 0
17 1 -2.7619431001667891e+01 -4.7622031559045981e+00 -7.9370052598409968e+00 0 0 0
18 1 -2.7619431001667891e+01 -3.9685026299204984e+00 -7.1433047338568976e+00 0 0 0
1486 4 -2.6688535075576738e+01 -4.8934471257916492e+00 -7.2824628607337614e+00 0 0 1
1940 4 -2.6801273412714696e+01 -3.7772222109369622e+00 7.7540473382518993e+00 0 1 1
1611 4 -2.5508457775329845e+01 -4.1613505615277715e+00 -7.0456077271783828e+00 0 0 -1
1560 4 -2.4716357553222899e+01 -4.4990353220655450e+00 -6.2513573037678576e+00 0 0 1
1500 4 -2.4176158039748131e+01 -3.9096780901456607e+00 -7.2589759042604589e+00 0 3 1
1637 4 -2.2919892512136101e+01 -4.7261931626278111e+00 -6.1216764619524966e+00 0 1 0
1780 4 -1.6172073600494521e+01 -6.6630221889773429e+00 7.0253088676578921e+00 0 0 -2
19 1 -2.9163522029790705e+01 -3.1748021039363987e+00 -7.9370052598409968e+00 0 0 0
20 1 -2.8391476515729316e+01 -2.3811015779522990e+00 -7.9370052598409968e+00 0 0 0
21 1 -2.8391476515729316e+01 -3.1748021039363987e+00 -7.1433047338568976e+00 0 0 0
22 1 -2.9163522029790705e+01 -2.3811015779522990e+00 -7.1433047338568976e+00 0 0 0
23 1 -2.7619431001667891e+01 -3.1748021039363987e+00 -7.9370052598409968e+00 0 0 0
24 1 -2.7619431001667891e+01 -2.3811015779522990e+00 -7.1433047338568976e+00 0 0 0
1412 4 -2.5708169014171588e+01 -3.5646510162130740e+00 -7.8809004218191738e+00 0 0 0
2308 4 -2.5580039265223864e+01 -2.6813968966896513e+00 6.6394955290290802e+00 0 0 0
2215 4 -2.3325011752024778e+01 -3.8550149329154371e+00 -7.8973787125591643e+00 0 1 1
25 1 -2.9163522029790705e+01 -1.5874010519681994e+00 -7.9370052598409968e+00 0 0 0
26 1 -2.8391476515729316e+01 -7.9370052598409968e-01 -7.9370052598409968e+00 0 0 0
27 1 -2.8391476515729316e+01 -1.5874010519681994e+00 -7.1433047338568976e+00 0 0 0
28 1 -2.9163522029790705e+01 -7.9370052598409968e-01 -7.1433047338568976e+00 0 0 0
29 1 -2.7619431001667891e+01 -1.5874010519681994e+00 -7.9370052598409968e+00 0 0 0
30 1 -2.7619431001667891e+01 -7.9370052598409968e-01 -7.1433047338568976e+00 0 0 0
1822 4 -2.6747517882947424e+01 -9.0396398714368154e-01 -6.3209280176941984e+00 0 -1 -2
1483 4 -2.4117133912842110e+01 -1.0429533555076547e+00 -6.8869419131264555e+00 0 0 2
1588 4 -2.3131558569232823e+01 -1.9371986120271945e+00 7.8356445733617939e+00 0 0 -1
1530 4 -2.1673338431381072e+01 -2.0969858440690059e+00 -6.7379320260972548e+00 0 0 0
1476 4 -1.7817285390252660e+01 -2.1416157181692332e+00 -6.4206866327014609e+00 0 -1 -1
1414 4 -2.5084246445653914e+01 7.4809078155821167e+00 7.5668594298953327e+00 0 -1 -1
31 1 -2.9163522029790705e+01 2.0070784565712057e-18 -7.9370052598409968e+00 0 0 0
33 1 -2.8391476515729316e+01 7.6306070691929293e-19 -7.1433047338568976e+00 0 0 0
35 1 -2.7619431001667891e+01 -1.5252202863971800e-18 -7.9370052598409968e+00 0 0 0
1623 4 -2.6839851193209448e+01 -4.1383574397934531e-01 7.6331648190281296e+00 0 0 1
1725 4 -2.5123893007737291e+01 -3.2330479249105171e-01 -6.9460294530610645e+00 0 -2 -1
1912 4 -2.3124738805986905e+01 -6.3154195240716438e-01 -5.9447884322956179e+00 0 0 -1
1890 4 -2.1198288578880454e+01 -5.6424697688849601e-01 -5.5229076074877428e+00 0 2 0
1811 4 -1.9973113539245112e+01 1.2902412642731984e+00 -5.5844800476925069e+00 0 -2 -1
1968 4 -1.8885886427424268e+01 6.3400153093591449e-01 -6.6357864828343187e+00 0 0 0
32 1 -2.8391476515729316e+01 7.9370052598409968e-01 -7.9370052598409968e+00 0 0 0
34 1 -2.9163522029790705e+01 7.9370052598409968e-01 -7.1433047338568976e+00 0 0 0
37 1 -2.9163522029790705e+01 1.5874010519681994e+00 -7.9370052598409968e+00 0 0 0
39 1 -2.8391476515729316e+01 1.5874010519681994e+00 -7.1433047338568976e+00 0 0 0
36 1 -2.7619431001667891e+01 7.9370052598409968e-01 -7.1433047338568976e+00 0 0 0
41 1 -2.7619431001667891e+01 1.5874010519681994e+00 -7.9370052598409968e+00 0 0 0
1870 4 -2.6698488636951243e+01 3.8385607503253522e-01 -7.4472977296648093e+00 0 -1 -1
1496 4 -2.6575189136272765e+01 1.3711037971994644e+00 -6.8781396278261564e+00 0 -2 3
1743 4 -2.5731527593626573e+01 1.8004360556314547e+00 -7.9023436972087993e+00 0 0 1
1700 4 -2.3723105651887185e+01 2.3633476669511073e+00 6.2571146499098704e+00 0 1 -1
1853 4 -2.0959168419388980e+01 8.6717254084034523e-01 -6.7129018672964609e+00 0 -2 0
1488 4 -2.0181924720941701e+01 -1.8573781705521825e-01 -7.2273145316657930e+00 0 1 1
2343 4 -1.9770234372914004e+01 1.0499327852045259e+00 -6.8489326499382281e+00 0 -2 -1
2330 4 -1.8556280823297040e+01 4.3673758576842414e-01 -7.8210088025461726e+00 0 1 2
38 1 -2.8391476515729316e+01 2.3811015779522990e+00 -7.9370052598409968e+00 0 0 0
40 1 -2.9163522029790705e+01 2.3811015779522990e+00 -7.1433047338568976e+00 0 0 0
43 1 -2.9163522029790705e+01 3.1748021039363987e+00 -7.9370052598409968e+00 0 0 0
45 1 -2.8391476515729316e+01 3.1748021039363987e+00 -7.1433047338568976e+00 0 0 0
42 1 -2.7619431001667891e+01 2.3811015779522990e+00 -7.1433047338568976e+00 0 0 0
47 1 -2.7619431001667891e+01 3.1748021039363987e+00 -7.9370052598409968e+00 0 0 0
2157 4 -2.6849373373101610e+01 3.9807684004834782e+00 -6.2730824369417704e+00 0 0 0
1846 4 -2.5791799305039806e+01 2.4090888595544460e+00 -6.9926988745494443e+00 0 -1 -2
1642 4 -2.5568570296595844e+01 1.9786207498956256e+00 -5.9866022531611902e+00 0 1 0
1800 4 -2.5530987460849015e+01 3.2053451999304978e+00 -7.6159510856467953e+00 0 1 2
1690 4 -2.4469748733215717e+01 1.8714533465475331e+00 7.7630455004888059e+00 0 -1 -2
1886 4 -1.6791874010807927e+01 3.4035203226774269e+00 -7.5786599523028864e+00 0 2 0
1632 4 -1.5375003666377671e+01 -7.1924946530763032e+00 7.8635863265441479e+00 0 0 -2
44 1 -2.8391476515729316e+01 3.9685026299204984e+00 -7.9370052598409968e+00 0 0 0
46 1 -2.9163522029790705e+01 3.9685026299204984e+00 -7.1433047338568976e+00 0 0 0
49 1 -2.9163522029790705e+01 4.7622031559045981e+00 -7.9370052598409968e+00 0 0 0
51 1 -2.8391476515729316e+01 4.7622031559045981e+00 -7.1433047338568976e+00 0 0 0
48 1 -2.7619431001667891e+01 3.9685026299204984e+00 -7.1433047338568976e+00 0 0 0
53 1 -2.7619431001667891e+01 4.7622031559045981e+00 -7.9370052598409968e+00 0 0 0
2325 4 -2.5624221044500800e+01 5.6228076893054357e+00 -7.6023352219249531e+00 0 -1 1
1561 4 -2.5848931382341096e+01 3.7821624707733679e+00 -6.6289214725415659e+00 0 0 1
1823 4 -2.4558857642729354e+01 5.0981511647432214e+00 -7.6703675674110974e+00 0 0 2
2262 4 -2.3493916752867605e+01 4.4297023474929835e+00 -7.0854808947358734e+00 0 1 0
1703 4 -2.3013141108552450e+01 3.4521152893631877e+00 -7.1289024225908397e+00 0 -2 1
50 1 -2.8391476515729316e+01 5.5559036818886982e+00 -7.9370052598409968e+00 0 0 0
52 1 -2.9163522029790705e+01 5.5559036818886973e+00 -7.1433047338568976e+00 0 0 0
55 1 -2.9163522029790705e+01 6.3496042078727974e+00 -7.9370052598409968e+00 0 0 0
57 1 -2.8391476515729316e+01 6.3496042078727974e+00 -7.1433047338568967e+00 0 0 0
54 1 -2.7619431001667891e+01 5.5559036818886973e+00 -7.1433047338568976e+00 0 0 0
59 1 -2.7619431001667891e+01 6.3496042078727974e+00 -7.9370052598409968e+00 0 0 0
1666 4 -2.6268171544130340e+01 6.4580725446225289e+00 -7.8052229329238427e+00 0 -2 0
2322 4 -2.5366737723428116e+01 6.9013358600016570e+00 -7.4121591133210574e+00 0 2 0
1787 4 -2.4256488180948832e+01 6.6613517089661860e+00 7.6954031615546974e+00 0 0 1
2399 4 -2.3530009005287752e+01 6.4524061250047167e+00 -6.2120958166896107e+00 0 -1 -2
2195 4 -2.0224549737322835e+01 6.5744450490543187e+00 -5.8096211974414045e+00 0 2 2
1634 4 -1.9325480401911715e+01 7.2613365690588525e+00 -7.5852167617377733e+00 0 -1 -1
2269 4 -1.9108750061728657e+01 6.5924970305881772e+00 -6.8350687919842414e+00 0 -1 -2
56 1 -2.8391476515729316e+01 7.1433047338568976e+00 -7.9370052598409968e+00 0 0 0
58 1 -2.9163522029790705e+01 7.1433047338568976e+00 -7.1433047338568976e+00 0 0 0
60 1 -2.7619431001667891e+01 7.1433047338568976e+00 -7.1433047338568976e+00 0 0 0
2132 4 -2.5603410762063323e+01 5.4659737251768394e+00 -5.6696628979253409e+00 0 -1 1
1507 4 -2.2823015848478125e+01 7.8056362945949029e+00 -6.9775072920184078e+00 0 1 -2
2064 4 -1.9166513009427593e+01 -7.6402949722445133e+00 -7.7312392660171767e+00 0 0 -1
1713 4 -1.9108975994501353e+01 5.8971491881354385e+00 -7.6363877694037887e+00 0 -2 -2
1615 4 -1.8812291303474240e+01 7.0516407759973498e+00 7.2705986521240673e+00 0 1 1
2306 4 -1.7695582236924658e+01 -7.3405285542226082e+00 -6.1980846451837683e+00 0 -1 1
61 1 -2.9163522029790705e+01 -7.9370052598409968e+00 -6.3496042078727974e+00 0 0 0
62 1 -2.8391476515729316e+01 -7.1433047338568967e+00 -6.3496042078727974e+00 0 0 0
63 1 -2.8391476515729316e+01 -7.9370052598409968e+00 -5.5559036818886982e+00 0 0 0
64 1 -2.9163522029790705e+01 -7.1433047338568976e+00 -5.5559036818886973e+00 0 0 0
65 1 -2.7619431001667891e+01 -7.9370052598409968e+00 -6.3496042078727974e+00 0 0 0
66 1 -2.7619431001667891e+01 -7.1433047338568976e+00 -5.5559036818886973e+00 0 0 0
1953 4 -2.6262702700869522e+01 -7.3363421064556151e+00 -4.7259303469057485e+00 0 0 1
2165 4 -2.6442304948140951e+01 7.1134046328079448e+00 -6.1140138743460826e+00 0 1 0
1578 4 -2.5212203372631279e+01 -5.3445022445305179e+00 -6.0360233957541016e+00 0 0 1
1894 4 -2.5049707477049807e+01 -6.8453659280499961e+00 -5.4172378596786848e+00 0 0 2
1810 4 -2.2980486697033552e+01 -6.5312758126324342e+00 -5.3742926470026307e+00 0 1 0
2328 4 -2.2310220166307541e+01 -5.8850136606366528e+00 -6.1221137895840094e+00 0 0 0
1550 4 -2.1515075750769029e+01 -7.2002623396434950e+00 -6.2398776653489358e+00 0 2 0
67 1 -2.9163522029790705e+01 -6.3496042078727974e+00 -6.3496042078727974e+00 0 0 0
68 1 -2.8391476515729316e+01 -5.5559036818886982e+00 -6.3496042078727974e+00 0 0 0
69 1 -2.8391476515729316e+01 -6.3496042078727974e+00 -5.5559036818886982e+00 0 0 0
70 1 -2.9163522029790705e+01 -5.5559036818886973e+00 -5.5559036818886973e+00 0 0 0
71 1 -2.7619431001667891e+01 -6.3496042078727974e+00 -6.3496042078727974e+00 0 0 0
72 1 -2.7619431001667891e+01 -5.5559036818886973e+00 -5.5559036818886973e+00 0 0 0
2048 4 -2.6563616392956728e+01 -5.6951382990484065e+00 -6.0521293233600382e+00 0 1 0
1462 4 -2.5916626358824722e+01 -4.5292614590675164e+00 -5.9871222787510181e+00 0 1 2
1925 4 -2.4615982302558223e+01 -5.9293118340328137e+00 -6.6930946176286854e+00 0 -1 0
1720 4 -2.3922412089350441e+01 -5.1939326424272059e+00 -5.8521006041300536e+00 0 0 0
73 1 -2.9163522029790705e+01 -4.7622031559045981e+00 -6.3496042078727974e+00 0 0 0
74 1 -2.8391476515729316e+01 -3.9685026299204984e+00 -6.3496042078727974e+00 0 0 0
75 1 -2.8391476515729316e+01 -4.7622031559045981e+00 -5.5559036818886982e+00 0 0 0
76 1 -2.9163522029790705e+01 -3.9685026299204984e+00 -5.5559036818886973e+00 0 0 0
1670 4 -2.6544441537569320e+01 -3.7597658722512697e+00 -6.9772316299988013e+00 0 1 -1
77 1 -2.7619431001667891e+01 -4.7622031559045981e+00 -6.3496042078727974e+00 0 0 0
78 1 -2.7619431001667891e+01 -3.9685026299204984e+00 -5.5559036818886973e+00 0 0 0
1446 4 -2.6720078764465562e+01 -4.2075979444822229e+00 -4.6525788391442839e+00 0 -2 1
1539 4 -2.4755354950582500e+01 -4.3088417713160636e+00 -4.9500339193177219e+00 0 1 2
2181 4 -2.4484927702368669e+01 -3.5817488232578252e+00 -5.8054859128601324e+00 0 -3 1
1508 4 -2.4013443354211660e+01 -4.9956725565564764e+00 -6.8579008540989079e+00 0 0 0
2071 4 -2.3154442262593207e+01 -2.9359237755589835e+00 -5.1815086607989675e+00 0 0 2
1806 4 -1.6440097690914882e+01 -5.1352797912096042e+00 -7.2715006041278132e+00 0 0 1
79 1 -2.9163522029790705e+01 -3.1748021039363987e+00 -6.3496042078727974e+00 0 0 0
80 1 -2.8391476515729316e+01 -2.3811015779522990e+00 -6.3496042078727974e+00 0 0 0
81 1 -2.8391476515729316e+01 -3.1748021039363987e+00 -5.5559036818886973e+00 0 0 0
82 1 -2.9163522029790705e+01 -2.3811015779522990e+00 -5.5559036818886973e+00 0 0 0
83 1 -2.7619431001667891e+01 -3.1748021039363987e+00 -6.3496042078727974e+00 0 0 0
84 1 -2.7619431001667891e+01 -2.3811015779522990e+00 -5.5559036818886973e+00 0 0 0
1746 4 -2.6798805065217607e+01 -3.2087299292170584e+00 -5.4060598994112974e+00 0 0 1
2384 4 -2.6712224103846474e+01 -2.7973109894254584e+00 -6.5676675509636882e+00 0 0 1
1640 4 -2.5520267754264886e+01 -3.6045472505703757e+00 -5.4132224179571704e+00 0 -2 2
1986 4 -2.4584384848548158e+01 -1.7430154063116692e+00 -6.0607336766234505e+00 0 1 1
85 1 -2.9163522029790705e+01 -1.5874010519681994e+00 -6.3496042078727974e+00 0 0 0
86 1 -2.8391476515729316e+01 -7.9370052598409968e-01 -6.3496042078727974e+00 0 0 0
87 1 -2.8391476515729316e+01 -1.5874010519681994e+00 -5.5559036818886973e+00 0 0 0
88 1 -2.9163522029790705e+01 -7.9370052598409968e-01 -5.5559036818886973e+00 0 0 0
89 1 -2.7619431001667891e+01 -1.5874010519681994e+00 -6.3496042078727974e+00 0 0 0
90 1 -2.7619431001667891e+01 -7.9370052598409968e-01 -5.5559036818886973e+00 0 0 0
1916 4 -2.6797212451066919e+01 -1.6271451938573482e+00 -5.5067027812813416e+00 0 1 3
1774 4 -2.5958883198912368e+01 -2.6559731022247655e+00 -5.5918347297972089e+00 0 -1 1
1555 4 -2.4425370943511279e+01 -3.1412819993537444e+00 -4.8297160607889609e+00 0 -1 0
1854 4 -2.5470956944261378e+01 -2.0324906151339643e+00 -4.8994517236531125e+00 0 1 0
2083 4 -2.1630561249667558e+01 -3.6893208747607215e-01 -6.7474337734337233e+00 0 -2 0
1403 4 -2.2757256918592013e+01 -8.4047723991708256e-01 -7.5377877104074544e+00 0 1 4
91 1 -2.9163522029790705e+01 -1.2914815101989334e-18 -6.3496042078727974e+00 0 0 0
93 1 -2.8391476515729316e+01 -4.9543158619960525e-19 -5.5559036818886982e+00 0 0 0
95 1 -2.7619431001667891e+01 -1.1832739834629256e-18 -6.3496042078727974e+00 0 0 0
2219 4 -2.6537130299791297e+01 -2.1107554436015818e-02 -5.6114131713747817e+00 0 -1 -1
1495 4 -2.5506678006136895e+01 5.5824870083287359e-01 -5.5074916020607176e+00 0 -1 1
1775 4 -2.4737766332026965e+01 -8.3678305703554737e-02 -3.9232554292451387e+00 0 -1 0
1773 4 -2.0867057896683345e+01 3.4690899006297099e-01 -5.7113600670792746e+00 0 -1 0
2226 4 -1.9690595930931444e+01 3.6894238019174502e-01 -4.2592757960256282e+00 0 1 -1
2086 4 -1.5849123138319786e+01 5.6233946231404663e-01 -5.7918146355893816e+00 0 1 0
92 1 -2.8391476515729316e+01 7.9370052598409968e-01 -6.3496042078727974e+00 0 0 0
94 1 -2.9163522029790705e+01 7.9370052598409968e-01 -5.5559036818886973e+00 0 0 0
97 1 -2.9163522029790705e+01 1.5874010519681994e+00 -6.3496042078727974e+00 0 0 0
99 1 -2.8391476515729316e+01 1.5874010519681994e+00 -5.5559036818886982e+00 0 0 0
2288 4 -2.6756507246898128e+01 1.3403989863461501e+00 -5.8912630177704326e+00 0 0 -2
96 1 -2.7619431001667891e+01 7.9370052598409968e-01 -5.5559036818886973e+00 0 0 0
101 1 -2.7619431001667891e+01 1.5874010519681994e+00 -6.3496042078727974e+00 0 0 0
1521 4 -2.5564825378697002e+01 1.4609256027522302e+00 -5.0321884453069501e+00 0 1 2
2070 4 -2.6106050834708487e+01 3.4321805697786489e-01 -6.5478316279687956e+00 0 -1 2
2112 4 -2.2727247157098763e+01 3.1179991396587009e-01 -5.5573551224007867e+00 0 -1 0
1624 4 -1.8684415075771454e+01 1.8381691349113793e+00 -5.9169631111369316e+00 0 0 0
98 1 -2.8391476515729316e+01 2.3811015779522990e+00 -6.3496042078727974e+00 0 0 0
100 1 -2.9163522029790705e+01 2.3811015779522990e+00 -5.5559036818886973e+00 0 0 0
103 1 -2.9163522029790705e+01 3.1748021039363987e+00 -6.3496042078727974e+00 0 0 0
105 1 -2.8391476515729316e+01 3.1748021039363987e+00 -5.5559036818886982e+00 0 0 0
102 1 -2.7619431001667891e+01 2.3811015779522990e+00 -5.5559036818886973e+00 0 0 0
107 1 -2.7619431001667891e+01 3.1748021039363987e+00 -6.3496042078727974e+00 0 0 0
1861 4 -2.6678965734833309e+01 3.0311952637442521e+00 -6.9120428595280643e+00 0 0 1
2099 4 -2.5896058698717290e+01 4.3725342148183621e+00 -5.4558824510007993e+00 0 0 1
104 1 -2.8391476515729316e+01 3.9685026299204984e+00 -6.3496042078727974e+00 0 0 0
106 1 -2.9163522029790705e+01 3.9685026299204984e+00 -5.5559036818886973e+00 0 0 0
109 1 -2.9163522029790705e+01 4.7622031559045981e+00 -6.3496042078727974e+00 0 0 0
111 1 -2.8391476515729316e+01 4.7622031559045981e+00 -5.5559036818886982e+00 0 0 0
1568 4 -2.6731349252254976e+01 2.7227615676550676e+00 -5.1973114640083651e+00 0 -1 1
108 1 -2.7619431001667891e+01 3.9685026299204984e+00 -5.5559036818886973e+00 0 0 0
113 1 -2.7619431001667891e+01 4.7622031559045981e+00 -6.3496042078727974e+00 0 0 0
1602 4 -2.6768492553750857e+01 4.8548078058642226e+00 -5.5258823794082161e+00 0 -1 -1
1876 4 -2.5238318870466252e+01 4.9200454644560736e+00 -6.5539892524555254e+00 0 1 2
2060 4 -1.8201215719439936e+01 5.9282031033484985e+00 -6.3788841106420842e+00 0 -2 2
1639 4 -1.5134681044154169e+01 -7.5944809379331613e+00 -4.1401087042975675e+00 0 2 -1
110 1 -2.8391476515729316e+01 5.5559036818886982e+00 -6.3496042078727974e+00 0 0 0
112 1 -2.9163522029790705e+01 5.5559036818886973e+00 -5.5559036818886973e+00 0 0 0
115 1 -2.9163522029790705e+01 6.3496042078727974e+00 -6.3496042078727974e+00 0 0 0
117 1 -2.8391476515729316e+01 6.3496042078727974e+00 -5.5559036818886982e+00 0 0 0
1692 4 -2.6666603272185970e+01 5.9842898512254061e+00 -6.3140132839786087e+00 0 -1 1
114 1 -2.7619431001667891e+01 5.5559036818886973e+00 -5.5559036818886973e+00 0 0 0
119 1 -2.7619431001667891e+01 6.3496042078727974e+00 -6.3496042078727974e+00 0 0 0
1929 4 -2.6734163587703080e+01 5.6862650213379204e+00 -4.9039099143759364e+00 0 -1 0
1956 4 -2.4609177986281146e+01 6.0623467252738195e+00 -5.8461356168017158e+00 0 -1 0
1460 4 -2.4362034985162374e+01 7.1637586423375064e+00 -5.7033362942294374e+00 0 -1 0
2237 4 -1.8077784143516627e+01 6.5857899494037309e+00 -7.2945432812614008e+00 0 -2 -1
116 1 -2.8391476515729316e+01 7.1433047338568967e+00 -6.3496042078727974e+00 0 0 0
118 1 -2.9163522029790705e+01 7.1433047338568976e+00 -5.5559036818886973e+00 0 0 0
120 1 -2.7619431001667891e+01 7.1433047338568976e+00 -5.5559036818886973e+00 0 0 0
1569 4 -2.4516659590437911e+01 -7.6491492766372264e+00 -5.7029360273143013e+00 0 1 -1
1471 4 -2.6476327789798546e+01 6.7935974018113887e+00 -5.0636313585309667e+00 0 2 0
1638 4 -2.3435117298250628e+01 -7.6868064782225494e+00 -6.1582656771160060e+00 0 1 -1
1494 4 -2.1178026889300362e+01 7.1822444949242543e+00 -5.8445699194767178e+00 0 -3 0
1783 4 -2.3176697150179095e+01 7.9314893877998989e+00 -3.8618804509976483e+00 0 0 1
2174 4 -1.5460755749813002e+01 6.0711702327628672e+00 -5.9757747124703657e+00 0 -1 1
1902 4 -1.8519808310535364e+01 7.7504297131063060e+00 -6.9948161558119715e+00 0 -2 2
121 1 -2.9163522029790705e+01 -7.9370052598409968e+00 -4.7622031559045981e+00 0 0 0
122 1 -2.8391476515729316e+01 -7.1433047338568976e+00 -4.7622031559045981e+00 0 0 0
123 1 -2.8391476515729316e+01 -7.9370052598409968e+00 -3.9685026299204984e+00 0 0 0
124 1 -2.9163522029790705e+01 -7.1433047338568976e+00 -3.9685026299204984e+00 0 0 0
125 1 -2.7619431001667891e+01 -7.9370052598409968e+00 -4.7622031559045981e+00 0 0 0
126 1 -2.7619431001667891e+01 -7.1433047338568976e+00 -3.9685026299204984e+00 0 0 0
2333 4 -2.5563126012128446e+01 7.6086450343488083e+00 -5.1737443199002344e+00 0 1 3
1917 4 -2.4610943020425896e+01 -5.2530463884337903e+00 -4.8024251203482811e+00 0 -1 2
1768 4 -1.6582807271734772e+01 6.3184826786860251e+00 5.9089254286867545e+00 0 -1 1
127 1 -2.9163522029790705e+01 -6.3496042078727974e+00 -4.7622031559045981e+00 0 0 0
128 1 -2.8391476515729316e+01 -5.5559036818886982e+00 -4.7622031559045981e+00 0 0 0
129 1 -2.8391476515729316e+01 -6.3496042078727974e+00 -3.9685026299204984e+00 0 0 0
130 1 -2.9163522029790705e+01 -5.5559036818886973e+00 -3.9685026299204984e+00 0 0 0
131 1 -2.7619431001667891e+01 -6.3496042078727974e+00 -4.7622031559045981e+00 0 0 0
132 1 -2.7619431001667891e+01 -5.5559036818886973e+00 -3.9685026299204984e+00 0 0 0
1745 4 -2.6236525355147180e+01 -5.7560010433849733e+00 -4.6368862182050146e+00 0 2 1
2104 4 -2.5293828287956412e+01 -5.6813037404689286e+00 -4.1615508258677947e+00 0 0 -1
1519 4 -2.4518282827202437e+01 -6.1746888283060741e+00 -3.5972723034573062e+00 0 -1 -1
2259 4 -2.2535085916039780e+01 -7.0701002082360800e+00 -4.3877959854084327e+00 0 1 0
133 1 -2.9163522029790705e+01 -4.7622031559045981e+00 -4.7622031559045981e+00 0 0 0
134 1 -2.8391476515729316e+01 -3.9685026299204984e+00 -4.7622031559045981e+00 0 0 0
135 1 -2.8391476515729316e+01 -4.7622031559045981e+00 -3.9685026299204984e+00 0 0 0
136 1 -2.9163522029790705e+01 -3.9685026299204984e+00 -3.9685026299204984e+00 0 0 0
137 1 -2.7619431001667891e+01 -4.7622031559045981e+00 -4.7622031559045981e+00 0 0 0
138 1 -2.7619431001667891e+01 -3.9685026299204984e+00 -3.9685026299204984e+00 0 0 0
2220 4 -2.6477157477894508e+01 -6.1257582708094560e+00 -3.3713775214257757e+00 0 3 0
1735 4 -1.7002158707755431e+01 -3.2992409985223374e+00 -3.8872035034563495e+00 0 -1 -2
2028 4 -1.5694313919728382e+01 -5.4171866293964070e+00 -2.9746638042407691e+00 0 1 0
139 1 -2.9163522029790705e+01 -3.1748021039363987e+00 -4.7622031559045981e+00 0 0 0
140 1 -2.8391476515729316e+01 -2.3811015779522990e+00 -4.7622031559045981e+00 0 0 0
141 1 -2.8391476515729316e+01 -3.1748021039363987e+00 -3.9685026299204984e+00 0 0 0
142 1 -2.9163522029790705e+01 -2.3811015779522990e+00 -3.9685026299204984e+00 0 0 0
2234 4 -2.6299576303046493e+01 -2.5046432344672720e+00 -3.8654739988692843e+00 0 -1 -1
143 1 -2.7619431001667891e+01 -3.1748021039363987e+00 -4.7622031559045981e+00 0 0 0
144 1 -2.7619431001667891e+01 -2.3811015779522990e+00 -3.9685026299204984e+00 0 0 0
2317 4 -2.6909908180573826e+01 -2.5458148541307213e+00 -4.6923007441869062e+00 0 1 0
2300 4 -2.3755577049975074e+01 -3.6486102037117703e+00 -3.4858289186122549e+00 0 1 -1
2354 4 -1.8257858514464917e+01 -1.8048792473457895e+00 -1.8007165385079917e+00 0 0 2
1478 4 -1.6834213549173700e+01 -2.1971986026108157e+00 -5.2237262176869450e+00 0 0 -2
1843 4 -1.5128662300593991e+01 4.3994790870637193e+00 -6.1052148605609249e+00 0 1 1
145 1 -2.9163522029790705e+01 -1.5874010519681994e+00 -4.7622031559045981e+00 0 0 0
146 1 -2.8391476515729316e+01 -7.9370052598409968e-01 -4.7622031559045981e+00 0 0 0
147 1 -2.8391476515729316e+01 -1.5874010519681994e+00 -3.9685026299204984e+00 0 0 0
148 1 -2.9163522029790705e+01 -7.9370052598409968e-01 -3.9685026299204984e+00 0 0 0
149 1 -2.7619431001667891e+01 -1.5874010519681994e+00 -4.7622031559045981e+00 0 0 0
150 1 -2.7619431001667891e+01 -7.9370052598409968e-01 -3.9685026299204984e+00 0 0 0
1706 4 -2.6666108267508520e+01 -6.3340220788487878e-01 -4.7045804590991249e+00 0 -1 2
2115 4 -2.6311081446456569e+01 -1.6110883059441521e+00 -4.4419316060858449e+00 0 0 0
2249 4 -2.4529912006054911e+01 -5.1313781973809836e-01 -3.0081008427751152e+00 0 2 0
2111 4 -1.4884048880753443e+01 -2.5114382042357448e+00 -3.8297886982398532e+00 0 0 1
151 1 -2.9163522029790705e+01 -4.6811678705217305e-19 -4.7622031559045981e+00 0 0 0
153 1 -2.8391476515729316e+01 -1.2740204702822802e-18 -3.9685026299204984e+00 0 0 0
155 1 -2.7619431001667891e+01 8.4249572767507480e-19 -4.7622031559045981e+00 0 0 0
1533 4 -2.2717335971229989e+01 1.5659293025801464e+00 -5.1620637851532480e+00 0 0 0
152 1 -2.8391476515729316e+01 7.9370052598409968e-01 -4.7622031559045981e+00 0 0 0
154 1 -2.9163522029790705e+01 7.9370052598409968e-01 -3.9685026299204984e+00 0 0 0
157 1 -2.9163522029790705e+01 1.5874010519681994e+00 -4.7622031559045981e+00 0 0 0
159 1 -2.8391476515729316e+01 1.5874010519681994e+00 -3.9685026299204984e+00 0 0 0
156 1 -2.7619431001667891e+01 7.9370052598409968e-01 -3.9685026299204984e+00 0 0 0
161 1 -2.7619431001667891e+01 1.5874010519681994e+00 -4.7622031559045981e+00 0 0 0
1975 4 -2.6754780175080594e+01 9.2988732770748850e-01 -4.4518054613130742e+00 0 -1 0
1915 4 -2.5783769936612568e+01 5.6237067828516607e-01 -4.2830842113426622e+00 0 0 0
1830 4 -2.5731159922926832e+01 -4.9054147545327981e-01 -3.8620914595969431e+00 0 2 -2
1631 4 -1.6894369894111726e+01 4.7021095780556754e-01 -4.5523498777922882e+00 0 -1 1
158 1 -2.8391476515729316e+01 2.3811015779522990e+00 -4.7622031559045981e+00 0 0 0
160 1 -2.9163522029790705e+01 2.3811015779522990e+00 -3.9685026299204984e+00 0 0 0
163 1 -2.9163522029790705e+01 3.1748021039363987e+00 -4.7622031559045981e+00 0 0 0
165 1 -2.8391476515729316e+01 3.1748021039363987e+00 -3.9685026299204984e+00 0 0 0
162 1 -2.7619431001667891e+01 2.3811015779522990e+00 -3.9685026299204984e+00 0 0 0
167 1 -2.7619431001667891e+01 3.1748021039363987e+00 -4.7622031559045981e+00 0 0 0
2199 4 -2.6744428469890430e+01 3.8766577833337768e+00 -5.0561724893748101e+00 0 -3 -1
1930 4 -2.4759898002478216e+01 3.2621425024894601e+00 -3.2462764869090459e+00 0 -1 2
2138 4 -2.6455180889582437e+01 1.9885053193566729e+00 -4.4938994809478165e+00 0 -1 0
2350 4 -2.4461682420625451e+01 2.0793004093482721e+00 -3.5939848380522368e+00 0 1 -1
1794 4 -2.3035905260693966e+01 2.3246500871714946e+00 -3.3533440634921212e+00 0 -1 0
2158 4 -1.6513194525857383e+01 2.4821399421464383e+00 -4.1382676872981152e+00 0 -1 -1
164 1 -2.8391476515729316e+01 3.9685026299204984e+00 -4.7622031559045981e+00 0 0 0
166 1 -2.9163522029790705e+01 3.9685026299204984e+00 -3.9685026299204984e+00 0 0 0
169 1 -2.9163522029790705e+01 4.7622031559045981e+00 -4.7622031559045981e+00 0 0 0
171 1 -2.8391476515729316e+01 4.7622031559045981e+00 -3.9685026299204984e+00 0 0 0
2200 4 -2.6223484021588664e+01 4.5428763073046952e+00 -4.0090503810960616e+00 0 1 2
168 1 -2.7619431001667891e+01 3.9685026299204984e+00 -3.9685026299204984e+00 0 0 0
173 1 -2.7619431001667891e+01 4.7622031559045981e+00 -4.7622031559045981e+00 0 0 0
1688 4 -2.5678858423249153e+01 5.5497776050335261e+00 -3.9516332675483006e+00 0 -1 0
2159 4 -2.6315202155068437e+01 7.0203072989720416e+00 -3.2103245037963619e+00 0 -2 0
2081 4 -1.8511728227383148e+01 3.7508166430304568e+00 -3.3046197957659906e+00 0 -3 -1
1934 4 -1.4892000480384340e+01 5.1107952701336670e+00 -3.3214320560424833e+00 0 0 -3
170 1 -2.8391476515729316e+01 5.5559036818886982e+00 -4.7622031559045981e+00 0 0 0
172 1 -2.9163522029790705e+01 5.5559036818886973e+00 -3.9685026299204984e+00 0 0 0
175 1 -2.9163522029790705e+01 6.3496042078727974e+00 -4.7622031559045981e+00 0 0 0
177 1 -2.8391476515729316e+01 6.3496042078727974e+00 -3.9685026299204984e+00 0 0 0
174 1 -2.7619431001667891e+01 5.5559036818886973e+00 -3.9685026299204984e+00 0 0 0
179 1 -2.7619431001667891e+01 6.3496042078727974e+00 -4.7622031559045981e+00 0 0 0
2173 4 -2.6718022484521711e+01 6.2261799358229917e+00 -3.8934050964411964e+00 0 1 -2
1730 4 -2.5506169599873136e+01 6.4800632727766079e+00 -5.0325771164927993e+00 0 -1 -1
2270 4 -1.8698087522067713e+01 5.1842873134684710e+00 -4.2549951131082304e+00 0 -3 -1
176 1 -2.8391476515729316e+01 7.1433047338568976e+00 -4.7622031559045981e+00 0 0 0
178 1 -2.9163522029790705e+01 7.1433047338568976e+00 -3.9685026299204984e+00 0 0 0