LAMMPS data file via write_data, version 2 Aug 2023, timestep = 300000, units = real

1491 atoms
5 atom types
686 bonds
1 bond types
343 angles
1 angle types

-12.120000000000001 12.120000000000001 xlo xhi
-12.120000000000001 12.120000000000001 ylo yhi
-28.28 28.28 zlo zhi

Masses

1 15.9994
2 1.008
3 28.99
4 35.453
5 26.9815

Pair Coeffs # lj/cut/tip4p/long

1 0.185199 3.1589
2 0 0
3 0.0469 2.4299
4 0.15 4.0447
5 11.697 2.574

Bond Coeffs # harmonic

1 0 0.9572

Angle Coeffs # harmonic

1 0 104.52

Atoms # full

478 16 1 -1.1128 -8.766340536825107 -10.334341267428144 -6.656637453270301 0 0 0
86 0 5 0 -10.769785435074413 -10.0346356772391 -9.100885397860228 0 0 0
484 18 1 -1.1128 -6.892669198071938 -8.24078389063461 -6.13324943405898 0 0 0
451 7 1 -1.1128 -11.150027843398572 -7.674501698741231 -6.313342042537122 1 0 0
544 38 1 -1.1128 -8.957684945921464 -6.237483471571208 -6.356164642473238 0 0 0
545 38 2 0.5564 -9.598386912772265 -6.943986502038973 -6.4372264851782495 0 0 0
452 7 2 0.5564 -11.768037086201542 -7.025337942233554 -6.64929805911677 1 0 0
453 7 2 0.5564 -11.021150039357737 -7.431244100448074 -5.396579564743951 1 0 0
480 16 2 0.5564 -8.152887091573193 -11.039361954567454 -6.44959169505728 0 0 0
485 18 2 0.5564 -6.072919300983186 -8.664134536623955 -6.388264936031733 0 0 0
479 16 2 0.5564 -9.485428972846831 -10.76887991738124 -7.115225917096361 0 0 0
546 38 2 0.5564 -8.121571400535647 -6.685355490386877 -6.227412348566923 0 0 0
486 18 2 0.5564 -7.566149350182078 -8.899012421826983 -6.304649294301988 0 0 0
1153 241 1 -1.1128 -6.5175095835854036 -3.7703642132590978 -6.503858055138168 0 0 0
1045 205 1 -1.1128 -10.429415539951817 -3.8260846452402455 -6.309307159491355 0 0 0
1154 241 2 0.5564 -5.79967354380062 -3.175206487652807 -6.720080291465977 0 0 0
1155 241 2 0.5564 -6.283068119327116 -4.594269820106888 -6.9310037845940915 0 0 0
1047 205 2 0.5564 -10.100698896623948 -4.706352616603622 -6.491825222127071 0 0 0
1046 205 2 0.5564 -9.699359467778368 -3.247077976475697 -6.528441693882422 0 0 0
291 0 5 0 -8.80769262998842 -4.000200037501915 -8.800717401105418 0 0 0
100 0 5 0 -6.822900188134581 -5.937507677795456 -8.883729351093306 0 0 0
99 0 5 0 -8.815288275608882 -7.9772378391891205 -8.972366958660084 0 0 0
88 0 5 0 -6.820966379939733 -10.064631673790688 -9.013876967028182 0 0 0
98 0 5 0 -10.839187676848823 -5.936486878353349 -8.885349137043715 0 0 0
55 0 5 0 -6.801778002310533 -7.973212850270781 -11.006066289577454 0 0 0
56 0 5 0 -8.775869957859163 -5.960222908651904 -10.887362055617372 0 0 0
219 0 5 0 -10.786880485491032 -3.9688102888849164 -10.915303103759518 0 0 0
223 0 5 0 -6.796701943535736 -3.905950041552686 -10.94942608436201 0 0 0
32 0 5 0 -8.825272911690451 -10.081860767765443 -11.036796162548162 0 0 0
51 0 5 0 -10.833756888306956 -7.943420105187819 -10.981168745199673 0 0 0
30 0 5 0 -6.821891374942453 -9.966190808930486 -13.05446208478758 0 0 0
222 0 5 0 -6.736953263785882 -1.880571102490525 -12.969612496686644 0 0 0
218 0 5 0 -10.804149286452121 -1.9888117469931161 -13.008489767784212 0 0 0
292 0 5 0 -6.817478059026609 -1.9067860561832144 -8.866732312928619 0 0 0
221 0 5 0 -8.713986486682083 -3.952680555250723 -12.942037870305244 0 0 0
224 0 5 0 -8.803533794515236 -1.9048845975745226 -10.896689196519931 0 0 0
290 0 5 0 -10.873382121730334 -1.9026535997717764 -8.902040875345294 0 0 0
50 0 5 0 -10.77958250879818 -5.914643769159274 -12.88388955976082 0 0 0
54 0 5 0 -6.834609742464871 -5.945691631017132 -12.996370094322131 0 0 0
53 0 5 0 -8.819250979929127 -7.952925445275726 -12.952222485869795 0 0 0
26 0 5 0 -10.786900668168846 -10.08011174761687 -13.060127054449692 0 0 0
36 0 5 0 -4.788425075353738 -9.97780814846643 -10.990419623128155 0 0 0
481 17 1 -1.1128 -4.835627632304413 -10.28082303315956 -6.713725976428984 0 0 0
547 39 1 -1.1128 -4.793661185794178 -5.959933734486546 -6.607192462880289 0 0 0
101 0 5 0 -4.844560632895553 -8.009515520569066 -8.85134603715046 0 0 0
60 0 5 0 -4.76679606448938 -5.972402437026711 -10.931420402031039 0 0 0
225 0 5 0 -4.865637083748097 -3.912042263537729 -12.989489649406067 0 0 0
57 0 5 0 -4.813252609688301 -7.981284976508955 -13.013415853536886 0 0 0
1048 206 1 -1.1128 -8.49445608885352 -1.8504470101367023 -6.52787489684026 0 0 0
964 178 1 -1.1128 -4.351425750932147 -2.077653610841494 -6.429504996524887 0 0 0
228 0 5 0 -4.822096757536236 -1.9102899195307401 -10.88167819423538 0 0 0
293 0 5 0 -4.682656440694092 -4.011714700354564 -9.010486793297703 0 0 0
1050 206 2 0.5564 -7.946442338233845 -1.0667338560353488 -6.569318590577243 0 0 0
1049 206 2 0.5564 -7.872366848180407 -2.5752017571256243 -6.464755076630309 0 0 0
482 17 2 0.5564 -5.574123675817698 -10.815154319667126 -6.421619763465877 0 0 0
1118 229 2 0.5564 -5.509588352429394 -6.849298728611757 -3.8825007893903787 1 0 0
1265 278 2 0.5564 -6.4867176920340945 -4.511172485462883 -3.38045173000471 2 0 0
1264 278 1 -1.1128 -5.987226900692698 -3.774556142622723 -3.7327695839718995 2 0 0
1266 278 2 0.5564 -6.006988415901886 -3.9028820409718725 -4.681123156733362 2 0 0
577 49 1 -1.1128 -10.150951634468484 -2.8502350849340923 -1.7366983655565431 2 0 0
1117 229 1 -1.1128 -4.645584106629836 -7.202604098451311 -4.094361420830628 1 0 0
1119 229 2 0.5564 -4.827537152344103 -8.023593850396173 -4.551631914377967 1 0 0
578 49 2 0.5564 -9.717845642641517 -2.3248750165900773 -2.409496020513554 2 0 0
648 72 2 0.5564 -3.0647373820832136 -4.85568020261447 -2.1817577892536 1 -1 0
570 46 2 0.5564 -7.29359610997878 -9.780180061683721 -2.878682469082447 1 0 0
569 46 2 0.5564 -6.777369069873297 -11.014002313447708 -3.5879650763711557 1 0 0
549 39 2 0.5564 -4.767471300312668 -6.378901048305574 -5.746952441791865 0 0 0
568 46 1 -1.1128 -6.745598557116532 -10.554198009093414 -2.7490361002997594 1 0 0
629 66 2 0.5564 -10.34400084110869 -1.2962622653279892 -4.244824246165668 1 -1 0
628 66 1 -1.1128 -9.444798274475191 -1.451276491387092 -3.9556557068384626 1 -1 0
630 66 2 0.5564 -8.992828835784662 -1.7693418462365036 -4.737193737741752 1 -1 0
978 182 2 0.5564 -6.559294335516406 -2.364425579981749 -2.498730703481233 2 0 0
1023 197 2 0.5564 -9.630365817647592 -4.2928262611678525 -2.756872841523546 1 1 0
940 170 1 -1.1128 -7.148776210071433 -6.5682633135266295 -3.2816525131678267 1 0 0
513 27 2 0.5564 -7.222562974879227 -11.287070985720003 -0.9103730798043239 1 0 0
942 170 2 0.5564 -7.901020515454147 -6.035445654097882 -3.5394266481301306 1 0 0
941 170 2 0.5564 -7.242102056387524 -6.673094347442083 -2.33479891948192 1 0 0
976 182 1 -1.1128 -6.777465273544562 -1.5813737007587492 -1.9932912828290157 2 0 0
977 182 2 0.5564 -6.0251159490955235 -1.4510167421399347 -1.4160353938261947 2 0 0
1104 224 2 0.5564 -8.881523288826052 -9.763942774614799 -4.870181428210455 2 0 0
1103 224 2 0.5564 -8.089060635065099 -8.526291608466877 -4.506694912104131 2 0 0
1102 224 1 -1.1128 -8.810609176028168 -9.078595373979752 -4.205725844372921 2 0 0
966 178 2 0.5564 -3.8401358701542243 -1.2718306789244123 -6.503520452421654 0 0 0
35 0 5 0 -2.789075897384086 -12.046895585868405 -11.021209833123859 0 0 0
636 68 2 0.5564 -5.948775790801541 -0.7580995572951991 -3.3333126007687044 1 -1 0
897 155 2 0.5564 -10.312230534918623 -0.32675421136627725 -7.110511015154081 0 0 0
1021 197 1 -1.1128 -9.544003179644445 -4.819601019183823 -3.551406034178849 1 1 0
1022 197 2 0.5564 -9.638146472242191 -4.191268131371427 -4.26734321961802 1 1 0
47 0 5 0 9.283609762051778 -12.10914535247486 -11.108110732545612 0 0 0
1161 243 2 0.5564 -10.157341212771522 -6.522754697726588 -3.675253259361335 2 0 0
1160 243 2 0.5564 -9.979883135820723 -8.024440498404898 -3.748339184023973 2 0 0
1159 243 1 -1.1128 -10.644649937035398 -7.345527997796588 -3.6325649798881314 2 0 0
965 178 2 0.5564 -3.701173300993733 -2.778954376157872 -6.4694326044248385 0 0 0
1486 0 4 -1.1 -4.20605970474817 -0.7438192673398448 -0.6497078685466661 1 0 0
29 0 5 0 -8.825504010382442 -12.062607330252913 -13.070639629444601 0 0 0
1271 280 2 0.5564 -11.195446355272635 -10.954524613344404 -0.7662366460212771 1 1 0
39 0 5 0 1.2087466670525637 -12.028325784773891 -10.994983451594033 0 0 0
579 49 2 0.5564 -11.019787726307328 -2.458354087119316 -1.6485578993838133 2 0 0
1272 280 2 0.5564 -11.661783748986338 -11.49993635845001 -2.0992609660819315 1 1 0
983 184 2 0.5564 -11.789190702891277 -2.4302976592627847 -6.272033066152235 0 0 0
1391 320 2 0.5564 3.606900011382397 -4.909145745848139 -0.04577525904587902 1 0 0
581 50 2 0.5564 -4.373023454608089 -9.080293506180006 -0.34783413656824413 0 0 0
634 68 1 -1.1128 -5.4840383730764835 -0.2980089396978228 -4.032277705938473 1 -1 0
646 72 1 -1.1128 -3.532478178820592 -4.042317479208622 -1.9922670640623217 1 -1 0
796 122 1 -1.1128 8.922705598472099 -0.01580296477508134 -0.2463971365004074 0 0 0
548 39 2 0.5564 -4.018952068165688 -5.3979810661075724 -6.624114554911749 0 0 0
854 141 2 0.5564 -5.130416428288961 -10.193757134499325 -2.0198427757023563 1 0 0
483 17 2 0.5564 -4.075827632456802 -10.857567087883192 -6.634225709502253 0 0 0
1315 295 1 -1.1128 4.23134262824206 -0.07660931716861356 -1.7300249958119065 1 0 0
647 72 2 0.5564 -4.327519947402061 -4.093479263149689 -2.5228356349091334 1 -1 0
91 0 5 0 -0.7551871862175988 -11.99343869854957 -8.981244857986137 0 0 0
970 180 1 -1.1128 -11.309304971150857 -7.676807644421322 -0.9698720803788622 1 0 0
85 0 5 0 11.451096846203292 -12.089498554917487 -9.068448282255979 -1 0 0
1239 269 2 0.5564 -7.580284524303358 -2.089212375823701 -0.5197856694176631 1 0 0
556 42 1 -1.1128 9.505947043715313 -0.3515744176258614 -6.575657262949284 0 0 0
518 29 2 0.5564 9.85932769112649 -11.132749798413215 -6.997458722651179 -1 0 0
1016 195 2 0.5564 5.266776843188461 -0.1663184305339928 -5.736326275082196 0 0 0
533 34 2 0.5564 -0.46404505553608083 -9.2330663169439 -1.7363121664198702 2 0 0
1399 323 1 -1.1128 -6.631833265656447 -4.675343417348511 -0.1051901244865536 1 0 0
774 114 2 0.5564 4.570914157610446 -11.774555411907885 -3.4276053189794484 -1 0 0
971 180 2 0.5564 -11.100566288661264 -7.605793339477952 -1.9013344190236137 1 0 0
635 68 2 0.5564 -5.067608427332907 -0.9932363144888017 -4.541673397257191 1 -1 0
37 0 5 0 -0.8285196999871958 -11.970070237857355 -12.98510585912405 0 0 0
1072 214 1 -1.1128 -6.930090640136571 -7.294821248936921 -0.6162315972476948 2 0 0
519 29 2 0.5564 9.554481101184319 -11.846957516014783 -5.6978935282312175 -1 0 0
89 0 5 0 -4.791137977209755 -12.028758411154433 -9.100195269616734 0 0 0
972 180 2 0.5564 -11.698884647160378 -6.831594353319278 -0.7461179870905122 1 0 0
45 0 5 0 7.367026125154416 -12.081000164594284 -13.20777214302079 0 0 0
517 29 1 -1.1128 9.291711790621225 -11.803213209488172 -6.617283301253755 -1 0 0
1416 328 2 0.5564 9.517367896757822 -7.811165754103724 -0.27932403820669083 1 0 0
1082 217 2 0.5564 9.260994262370529 -0.2839176989178039 -4.552555019024552 1 0 0
781 117 1 -1.1128 -0.9336374509967327 -12.095434087277429 -1.7357077254558153 2 0 0
220 0 5 0 11.402203838192806 -1.9008511990610042 -10.985873386568594 -1 0 0
855 141 2 0.5564 -3.716688744095458 -9.938857073836715 -2.4976445275220347 1 0 0
1221 263 2 0.5564 -2.6955788881411773 -9.292271409876658 -4.862371689306065 1 1 0
833 134 2 0.5564 -3.967241185296358 -11.297460332483638 -0.06408116456433177 1 0 0
853 141 1 -1.1128 -4.220894637741749 -10.183718036055932 -1.7217169610420662 1 0 0
538 36 1 -1.1128 8.69297186240092 -12.083358153474988 -1.084703702733442 0 0 0
1220 263 2 0.5564 -2.987861888934339 -10.711089847162176 -4.422573007723319 1 1 0
1219 263 1 -1.1128 -2.737936352263355 -9.850574241792318 -4.086009586135474 1 1 0
534 34 2 0.5564 -1.502343732479084 -8.195479149047383 -1.3658588804864111 2 0 0
1288 286 1 -1.1128 1.4888680186612935 -11.768619863408423 -4.108272450924437 1 0 0
95 0 5 0 7.329890732287032 -12.073572645322637 -9.174477780903782 0 0 0
447 5 2 0.5564 2.053990887648582 -11.446341059783222 -6.846509677024813 0 0 0
848 139 2 0.5564 2.3631800072733435 -11.216213528596203 -1.4500119859195169 1 0 0
1008 192 2 0.5564 2.2836708008078253 -0.6893115904649351 -1.2707027708781233 1 0 0
1006 192 1 -1.1128 1.554119524069034 -1.0018455559756712 -0.7356119505901654 1 0 0
558 42 2 0.5564 10.26439029500547 -0.9302663842986819 -6.497359329019383 0 0 0
1157 242 2 0.5564 -3.072327525933069 -7.402398143771801 -3.10091431471313 1 0 0
1156 242 1 -1.1128 -2.411945765712068 -7.14252592823466 -2.4585906659242367 1 0 0
909 159 2 0.5564 2.510088004952434 -0.4938860286836806 -6.49955818321103 0 0 0
1302 290 2 0.5564 0.6595034325502979 -4.123588068459037 -2.732747770395126 1 0 0
1202 257 2 0.5564 -0.13637608226787418 -1.9155330910209296 -1.0303823345502514 1 0 0
1131 233 2 0.5564 0.12950831735444043 -6.069094014265034 -3.4314629168066317 1 0 0
1390 320 1 -1.1128 3.583998995897759 -5.798840249036816 -0.3981267772485519 1 0 0
1201 257 1 -1.1128 -1.0864011320344693 -2.0017193206856967 -1.1096172340345634 1 0 0
1130 233 2 0.5564 -0.3056819796222873 -6.6129148505983615 -4.775627182071288 1 0 0
1129 233 1 -1.1128 -0.09190871546476362 -6.883679719650218 -3.8827573949958945 1 0 0
1158 242 2 0.5564 -1.6825746476463819 -6.813487194575787 -2.983955423741761 1 0 0
659 76 2 0.5564 3.1783741968449326 -9.126950980326145 -2.316047392190982 1 0 0
734 101 2 0.5564 1.952143911013744 -8.52065438801072 -3.8801660663653053 1 0 0
733 101 1 -1.1128 2.867219557794926 -8.74426521235704 -4.050004728443663 1 0 0
735 101 2 0.5564 3.364120233070683 -8.00614772153693 -3.697136611558479 1 0 0
818 129 2 0.5564 -1.4993140668848048 -3.2853768742026856 -3.415727213126387 1 0 0
819 129 2 0.5564 -2.1415734490869727 -1.9504166552256563 -3.727618399373428 1 0 0
642 70 2 0.5564 -0.04322515195551238 -8.58191105427539 -3.708142624378759 1 0 0
640 70 1 -1.1128 0.04960707174358628 -9.515417714183945 -3.5179399219306293 1 0 0
817 129 1 -1.1128 -1.883394585034596 -2.778959669235103 -4.131455416058166 1 0 0
641 70 2 0.5564 -0.7253068402842795 -9.918360030392979 -3.9095524703477933 1 0 0
1200 256 2 0.5564 1.9297376808570632 -2.1331031302941925 -3.6828684007040926 1 0 0
1199 256 2 0.5564 2.8517421742931846 -3.3301155980022004 -3.7775509209394826 1 0 0
1198 256 1 -1.1128 1.9260415131297768 -3.0870716606030215 -3.7613831488063556 1 0 0
1229 266 2 0.5564 1.4733524517559453 -0.4036456593722825 -4.897215132334519 1 0 0
1230 266 2 0.5564 0.40094565065068843 -0.45430724107414844 -3.8298495404452733 1 0 0
887 152 2 0.5564 -0.8125369196033281 -2.1474986914548153 -5.406467025519727 0 0 0
62 0 5 0 1.211032719448491 -5.999515569343819 -12.959061009428934 0 0 0
294 0 5 0 -2.6764315431726553 -1.8831248525086406 -8.911599261840566 0 0 0
64 0 5 0 -0.7394826463397964 -5.971241549121082 -10.957017437612603 0 0 0
59 0 5 0 -2.7302922565294865 -8.057338288538064 -11.018623731065865 0 0 0
232 0 5 0 -0.7398893845085746 -1.9353697886258396 -10.98331664874359 0 0 0
885 151 2 0.5564 -2.004111558341379 -4.677016525540954 -6.357252232354781 0 0 0
889 153 1 -1.1128 1.6121156506650913 -4.118332098492724 -6.5776768842768805 0 0 0
883 151 1 -1.1128 -2.8124597786122596 -4.214440536988103 -6.136234494472538 0 0 0
884 151 2 0.5564 -2.5951778850963176 -3.713940178798963 -5.349770468611012 0 0 0
1058 209 2 0.5564 1.92951547618966 -7.889868107224951 -6.468009406682396 0 0 0
530 33 2 0.5564 -1.154680131404924 -9.454403367685364 -6.415758781139312 0 0 0
969 179 2 0.5564 -2.978656162229722 -7.820094329641189 -6.665928977582175 0 0 0
531 33 2 0.5564 -1.431788164649642 -10.94015783529684 -6.503180948448917 0 0 0
551 40 2 0.5564 -0.07214794997309149 -6.64027917087333 -6.693449507170054 0 0 0
968 179 2 0.5564 -1.6465671575878176 -7.207970709753549 -6.288127035606804 0 0 0
967 179 1 -1.1128 -2.165927483640193 -8.006734846373078 -6.195990057221521 0 0 0
529 33 1 -1.1128 -0.749064590274974 -10.309701566134265 -6.2737671819361935 0 0 0
550 40 1 -1.1128 -0.5263942891132075 -5.821413869679358 -6.495062645099208 0 0 0
1059 209 2 0.5564 0.8068712756126027 -8.905170425516305 -6.4949229017224335 0 0 0
1057 209 1 -1.1128 0.9849922670645701 -7.970657793660407 -6.600688903388106 0 0 0
890 153 2 0.5564 1.7821949378866138 -3.8426159716659876 -5.676960615949014 0 0 0
552 40 2 0.5564 0.17043204239507506 -5.167339614585179 -6.441446409825449 0 0 0
295 0 5 0 -0.7386227195267163 -3.911882835805836 -8.944896198444301 0 0 0
891 153 2 0.5564 2.23872347334602 -4.824674030795541 -6.7348064417547935 0 0 0
102 0 5 0 -2.7369720419222614 -5.940827753598054 -8.925194571223772 0 0 0
104 0 5 0 1.284219658136199 -5.95347474313135 -8.95455269905351 0 0 0
103 0 5 0 -0.6832873264157238 -7.982035941781676 -8.97308146372475 0 0 0
90 0 5 0 -2.823317330413171 -9.990194398327846 -9.000876468534715 0 0 0
92 0 5 0 1.3532233759795587 -10.012760243377182 -9.027988831306255 0 0 0
63 0 5 0 1.3791053098323116 -7.979927243954313 -10.999423993519596 0 0 0
34 0 5 0 -2.7705495509316362 -9.94344438619642 -13.045200962231771 0 0 0
227 0 5 0 -2.791228351462774 -3.943156961347247 -10.913764996940353 0 0 0
231 0 5 0 1.1429653741120183 -4.018824495878744 -10.98884208770873 0 0 0
40 0 5 0 -0.7155319801404005 -10.055449961133835 -10.939309792687231 0 0 0
296 0 5 0 1.291574862402856 -1.9381081321304678 -8.91522209359795 0 0 0
886 152 1 -1.1128 -0.6000607951113454 -2.076288073585742 -6.33706616612586 0 0 0
888 152 2 0.5564 0.14313591432797662 -2.66699434017198 -6.459425011729038 0 0 0
38 0 5 0 1.3298961713547715 -9.951798290753938 -13.066458154743144 0 0 0
58 0 5 0 -2.8125223041585623 -5.985362572188057 -13.020341348003956 0 0 0
230 0 5 0 1.3015817587396157 -1.887155520714471 -13.08286724973027 0 0 0
61 0 5 0 -0.7339562907657093 -7.971582685363148 -12.939476589697653 0 0 0
226 0 5 0 -2.852826040276562 -2.014002652368332 -12.937911774917568 0 0 0
229 0 5 0 -0.7664141106851093 -4.019080288906307 -12.9691278841899 0 0 0
65 0 5 0 3.3044669954627177 -7.985834341136514 -13.054598054568128 0 0 0
297 0 5 0 3.2981773116285265 -3.9262131972920966 -9.061256492625636 0 0 0
233 0 5 0 3.1913537703515615 -4.014143904224093 -13.023162314865434 0 0 0
236 0 5 0 3.2211848572074433 -1.9148689822650722 -10.99796660041273 0 0 0
44 0 5 0 3.379976266268374 -10.022638046971574 -11.070701971316984 0 0 0
68 0 5 0 3.2621663814486457 -5.9742321805610965 -11.022669221764568 0 0 0
472 14 1 -1.1128 3.2762066696532366 -10.150050562447351 -6.661828770203866 0 0 0
105 0 5 0 3.308171379684662 -7.975979789322497 -9.000016411119352 0 0 0
490 20 1 -1.1128 3.405121326339711 -2.015045441070011 -6.771860584166793 0 0 0
487 19 1 -1.1128 3.494071036918707 -6.035153810543928 -6.348201062033353 0 0 0
1228 266 1 -1.1128 1.3423064801366469 -0.5653951478497707 -3.962924669814891 1 0 0
492 20 2 0.5564 2.654302379147083 -2.589191848174265 -6.922994263887782 0 0 0
473 14 2 0.5564 3.512282191148582 -9.56507852196302 -5.941890136544557 0 0 0
1300 290 1 -1.1128 -0.17086666080536828 -4.538414839802357 -2.4989439166129848 1 0 0
993 187 2 0.5564 11.317183601044103 -8.47670146843175 -1.1548963371960932 1 0 0
1301 290 2 0.5564 -0.21991542960031746 -4.457145450272767 -1.5464622708647682 1 0 0
446 5 2 0.5564 0.5536768123623068 -11.451735380480569 -6.644206549728022 0 0 0
1203 257 2 0.5564 -1.319742046768206 -1.4256522004128374 -1.8375785450754678 1 0 0
491 20 2 0.5564 4.0291014047389915 -2.5578049057663286 -6.289879415913201 0 0 0
42 0 5 0 5.31843617979497 -10.013755509909124 -13.106336844602966 0 0 0
903 157 2 0.5564 -1.8277401815068992 -0.575564940634473 -6.6804327174313025 0 0 0
532 34 1 -1.1128 -0.8608309838234147 -8.794368341003816 -0.983752530731405 2 0 0
1290 286 2 0.5564 1.106968862899101 -10.917350983257204 -3.8944528185886957 1 0 0
33 0 5 0 -4.8272726341089385 -11.953337668298063 -12.970101019938506 0 0 0
658 76 1 -1.1128 3.4486948805419435 -9.642067494681505 -1.5559113297875664 1 0 0
660 76 2 0.5564 2.8466575219737975 -9.3775680728516 -0.8603519019354078 1 0 0
1289 286 2 0.5564 1.3761066732768419 -11.85121624941511 -5.055210816365951 1 0 0
471 13 2 0.5564 6.556762338432539 -6.431373860193987 -7.104790334414464 0 0 0
474 14 2 0.5564 3.9850657733675288 -10.79262893937986 -6.691221972184275 0 0 0
489 19 2 0.5564 3.9727760125501086 -5.402021863668034 -5.813200436540191 0 0 0
644 71 2 0.5564 4.142445939377598 -6.405186745480827 -2.213307141448639 0 -1 0
847 139 1 -1.1128 1.9005129953354802 -11.8896905132774 -0.951395966768029 1 0 0
25 0 5 0 11.270056558515412 -11.992861803023262 -13.142134502240765 -1 0 0
493 21 1 -1.1128 9.434497619821933 -3.8312332406015472 -6.561161358192143 0 0 0
52 0 5 0 11.40598723571801 -5.973415285584297 -11.036507529375246 -1 0 0
69 0 5 0 7.322923825753131 -7.921239787477667 -13.061047226986005 0 0 0
72 0 5 0 7.270607793829589 -5.940379501811348 -11.105361122419447 0 0 0
1477 0 4 -1.1 5.00293876612507 -3.8064932680471717 -4.659999969761035 0 0 0
459 9 2 0.5564 12.064502195404174 -9.138811295364336 -6.51595525004748 -1 0 0
238 0 5 0 9.394462077863185 -1.9459366874189827 -13.060638486285203 0 0 0
458 9 2 0.5564 12.073068757273697 -10.63931705860879 -6.716717714959073 -1 0 0
1270 280 1 -1.1128 -11.938330649213256 -11.384196778372113 -1.1902150405867697 1 1 0
791 120 2 0.5564 9.101389673392566 -5.0490456149733935 -3.926794569932462 0 0 0
792 120 2 0.5564 7.924908550971459 -4.904679300118801 -2.9850173495396426 0 0 0
48 0 5 0 7.376078336597662 -10.024736570398613 -11.136050703707134 0 0 0
41 0 5 0 3.3058274798730767 -12.081233793595983 -13.109480433195767 0 0 0
849 139 2 0.5564 1.8751131745230674 -11.550819197230767 -0.056547464069053414 1 0 0
445 5 1 -1.1128 1.2990413673574823 -12.032672946506878 -6.796405994190201 0 0 0
913 161 1 -1.1128 7.362196220332332 -2.0449972458722927 -6.478555197267792 0 0 0
93 0 5 0 3.3774618772951013 -12.06813736032948 -9.061332492639098 0 0 0
1081 217 1 -1.1128 8.700935503132063 -0.36685308648000575 -3.780738052896228 1 0 0
1317 295 2 0.5564 4.783250219000339 -0.8233438202626878 -1.9624730560405435 1 0 0
1333 301 1 -1.1128 11.925123849869316 -1.5599532409649652 -3.2879094296543676 1 0 0
1074 214 2 0.5564 -6.737202688813006 -6.392229933685515 -0.36254456293704795 2 0 0
488 19 2 0.5564 4.076426791586649 -6.792937936912821 -6.401848672710882 0 0 0
467 12 2 0.5564 5.756489182759706 -8.196596923022355 -5.659495605037733 0 0 0
963 177 2 0.5564 12.03484639546295 -5.109792780686502 -6.796125702400512 -1 0 0
807 125 2 0.5564 -4.459478615812265 -11.805546438761894 -2.9586300192470514 1 0 0
600 56 2 0.5564 10.401834901280754 -6.78989055359993 -3.807142272294225 0 -1 0
598 56 1 -1.1128 10.759805610320763 -5.93048714629458 -4.029651229343975 0 -1 0
599 56 2 0.5564 11.646788277719473 -5.939504809040627 -3.669880698118266 0 -1 0
995 188 2 0.5564 7.692641626812502 -4.799853361796225 -0.7096778581514236 1 0 0
1107 225 2 0.5564 6.796350511696372 -0.7527686954979491 -3.9680034327122002 0 0 0
237 0 5 0 7.348258855353338 -3.8947272867128424 -13.060319499120856 0 0 0
27 0 5 0 -10.852140743147698 -12.075497367983356 -11.061540289637119 0 0 0
790 120 1 -1.1128 8.365260535692345 -4.474027307975555 -3.7177209762724193 0 0 0
234 0 5 0 5.230481588011035 -1.9123321871007066 -13.155244744050297 0 0 0
682 84 1 -1.1128 9.286318372033492 -11.63610540838537 -3.7146624146148874 1 0 0
991 187 1 -1.1128 10.649623644869676 -9.124616992841371 -1.3803297220619408 1 0 0
468 12 2 0.5564 5.853846576591448 -8.351905449542505 -7.162258696929305 0 0 0
477 15 2 0.5564 7.958699664301902 -10.748275782832623 -6.817821168960455 -1 0 0
783 117 2 0.5564 -0.9634647184955186 -11.58603057634747 -0.9258620437991724 2 0 0
914 161 2 0.5564 8.189123616660247 -1.6041758316774604 -6.673797520280571 0 0 0
96 0 5 0 9.397684347766633 -10.042197302904926 -9.092035941108051 0 0 0
961 177 1 -1.1128 11.349659190475826 -5.766887316179634 -6.6736673374444555 -1 0 0
962 177 2 0.5564 11.21328658964743 -5.797795231187454 -5.7267363056613965 -1 0 0
1105 225 1 -1.1128 5.839199470173163 -0.7508874869553309 -3.97867010465964 0 0 0
464 11 2 0.5564 5.851570357498146 -11.126354268056822 -6.505932985611667 0 0 0
1334 301 2 0.5564 -11.843215697171765 -0.8902861954535853 -2.792607089884131 2 0 0
66 0 5 0 5.329519558592625 -5.944782194490277 -13.09479226464814 0 0 0
982 184 1 -1.1128 11.601553252022896 -2.0500484426638423 -6.0474771808719305 -1 0 0
107 0 5 0 7.335635975483247 -8.048652150438137 -9.141661980699617 0 0 0
469 13 1 -1.1128 7.299654492983373 -5.999372922129856 -6.68323930967484 0 0 0
298 0 5 0 5.366781995532644 -1.9634277330922132 -9.079681992341246 0 0 0
1330 300 1 -1.1128 6.410520212927656 -8.412548462728157 -4.008715850975722 1 0 0
235 0 5 0 5.2714739636249055 -3.9276863519540623 -11.135183962486167 0 0 0
1236 268 2 0.5564 5.096225834290756 -3.276441130299058 -2.4648104345047073 0 0 0
240 0 5 0 7.276258499260976 -1.903823591040905 -11.165665045992291 0 0 0
67 0 5 0 5.207154441344771 -7.973759065055587 -11.058873674427305 0 0 0
299 0 5 0 7.294489992952726 -3.988328325200428 -8.989163309418513 0 0 0
46 0 5 0 9.34664315356127 -9.973390755613094 -13.218076344425665 0 0 0
433 1 1 -1.1128 9.037144480769133 -8.1899481391127 -6.691357717364305 -1 0 0
1234 268 1 -1.1128 5.300153764790977 -3.1123733636522832 -1.5440920995213119 0 0 0
1331 300 2 0.5564 6.1622201516099455 -9.175365482512055 -3.4865223842867916 1 0 0
70 0 5 0 9.421364316247178 -5.93561335508891 -13.07133952470081 0 0 0
463 11 1 -1.1128 5.248740975264642 -11.8688138816723 -6.545811765632354 0 0 0
495 21 2 0.5564 10.168640455029974 -3.2512144879637446 -6.359018928254291 0 0 0
108 0 5 0 9.292431641329925 -6.002222394080289 -9.138338923393917 0 0 0
1332 300 2 0.5564 5.886180893921494 -7.695980581942009 -3.6511970494279233 1 0 0
476 15 2 0.5564 7.650256824573588 -9.288977724823846 -6.5585722902153405 -1 0 0
435 1 2 0.5564 9.418213821718295 -8.286394656359263 -5.818586913262781 -1 0 0
1106 225 2 0.5564 5.598030307481074 -1.6754335242112133 -4.0359341180956445 0 0 0
71 0 5 0 9.382459110148483 -7.994301129348502 -11.085562324242108 0 0 0
94 0 5 0 5.339930506542462 -9.947340447214998 -9.11229920463278 0 0 0
1053 207 2 0.5564 5.721777001353359 -10.339484870561728 -1.6879269059577067 0 0 0
457 9 1 -1.1128 11.483592200768467 -9.888568669420444 -6.644990547668435 -1 0 0
1017 195 2 0.5564 5.012018330556523 -0.6336164847405162 -7.153587232969709 0 0 0
217 0 5 0 11.3984595651586 -3.872961112261269 -12.912080049128567 -1 0 0
49 0 5 0 11.47814257087941 -8.011940334178426 -13.126180783709277 -1 0 0
994 188 1 -1.1128 7.0139017223362075 -5.152206189360892 -1.2853580102765958 1 0 0
1052 207 2 0.5564 7.116101398511091 -10.917162887340293 -1.806447560902462 0 0 0
996 188 2 0.5564 6.389376996381106 -4.434063423131113 -1.3876092488810745 1 0 0
695 88 2 0.5564 8.575091344297604 -8.631519281471613 -3.4815243881228763 1 -1 0
300 0 5 0 9.331238261226789 -2.0157428431800715 -9.111011732632507 0 0 0
31 0 5 0 -6.865007897173299 -12.112833250169695 -11.057383252064643 0 0 0
470 13 2 0.5564 7.942547414247375 -6.697089792924004 -6.556255831379456 0 0 0
97 0 5 0 11.307305296983857 -7.9047878536273295 -9.037539846098973 -1 0 0
992 187 2 0.5564 11.105889095934375 -9.964880912056483 -1.3353781288265354 1 0 0
694 88 1 -1.1128 9.506224845119302 -8.575830375240022 -3.6962303034519577 1 -1 0
239 0 5 0 9.262625090585594 -3.953799771007121 -11.012018076964438 0 0 0
514 28 1 -1.1128 9.376044435179663 -2.372339014761604 -2.2194878011960437 1 -1 0
466 12 1 -1.1128 5.456090534235274 -7.809048333805801 -6.481570530021694 0 0 0
1051 207 1 -1.1128 6.349837571143006 -10.676128763763531 -2.327014492866346 0 0 0
289 0 5 0 11.351033652458977 -3.934732942754731 -9.001949169752557 -1 0 0
1335 301 2 0.5564 11.113939844372247 -1.6941349885185137 -2.797820518690542 1 0 0
28 0 5 0 11.340460661938755 -9.954796006379143 -11.0725779959985 -1 0 0
516 28 2 0.5564 9.048916252886267 -3.1331917836107923 -2.6994007629268144 1 -1 0
1462 0 3 1.1 7.176099760917095 -4.112050352288167 -5.526538230248359 0 0 0
915 161 2 0.5564 6.710349977831641 -1.3440621277603817 -6.480238289148178 0 0 0
696 88 2 0.5564 9.951798715248 -8.9250864924501 -2.924396807180142 1 -1 0
515 28 2 0.5564 9.084794587720186 -1.6201303813018866 -2.734828665912784 1 -1 0
475 15 1 -1.1128 7.230876207190155 -10.136484784663777 -6.707204106308537 -1 0 0
643 71 1 -1.1128 4.353207458267096 -6.620827359329406 -3.121771164726182 0 -1 0
494 21 2 0.5564 9.842330668584099 -4.673882519082376 -6.7608053583182635 0 0 0
684 84 2 0.5564 9.10772156101208 -11.88154090795158 -2.8068671576339765 1 0 0
106 0 5 0 5.318948634484282 -5.991025407234446 -9.029397062518886 0 0 0
434 1 2 0.5564 9.754822877656826 -8.395184268763723 -7.290575671156565 -1 0 0
1235 268 2 0.5564 4.474452363632305 -3.2648207907401257 -1.0845281833279263 0 0 0
645 71 2 0.5564 4.750547218148287 -5.8233996256159655 -3.4717325637942222 0 -1 0
683 84 2 0.5564 9.026312086631979 -10.716578358565403 -3.7702626135466413 1 0 0
984 184 2 0.5564 11.55043209204002 -2.1229513124087447 -5.0944271797451455 -1 0 0
1015 195 1 -1.1128 5.578804941366029 -0.06239226439252546 -6.63524920043238 0 0 0
465 11 2 0.5564 5.051706159846508 -12.067399158420946 -5.630403593472193 0 0 0
245 0 5 0 -8.789198590326887 -0.04128852542111758 -13.051615971347944 0 0 0
241 0 5 0 11.412711228036832 -0.027143249087106747 -13.060209537940073 -1 0 0
1478 0 4 -1.1 -6.627270056061527 -12.116413693420592 -5.4832393926982235 0 0 0
253 0 5 0 -0.7764681352153487 -0.05842864973176871 -13.01121089047769 0 0 0
573 47 2 0.5564 -8.860774983898047 -0.5861184205128329 -0.033513225158004124 1 -1 0
1238 269 2 0.5564 -8.799603024092713 -2.8523385262240453 -0.04778407298326969 1 0 0
687 85 2 0.5564 -8.758249907014918 -7.66912318605825 6.834555021960155 0 0 0
685 85 1 -1.1128 -8.142920731042222 -8.376601160142965 6.6420307686187074 0 0 0
686 85 2 0.5564 -7.285869659809474 -7.950741323734772 6.623166263930185 0 0 0
850 140 1 -1.1128 -7.647836384665414 -4.184382747261934 6.536133671206385 1 0 0
852 140 2 0.5564 -7.006038757831477 -3.4794430350232193 6.450110109155809 1 0 0
851 140 2 0.5564 -7.1215832188524555 -4.981060895098385 6.604020562258087 1 0 0
1002 190 2 0.5564 -5.520762226132058 -6.817723950394877 5.941345273985398 0 0 0