LAMMPS data file via write_data, version 2 Aug 2023, timestep = 1000000, units = real

1491 atoms
5 atom types
686 bonds
1 bond types
343 angles
1 angle types

-12.120000000000001 12.120000000000001 xlo xhi
-12.120000000000001 12.120000000000001 ylo yhi
-28.28 28.28 zlo zhi

Masses

1 15.9994
2 1.008
3 28.99
4 35.453
5 26.9815

Pair Coeffs # lj/cut/tip4p/long

1 0.185199 3.1589
2 0 0
3 0.0469 2.4299
4 0.15 4.0447
5 11.697 2.574

Bond Coeffs # harmonic

1 0 0.9572

Angle Coeffs # harmonic

1 0 104.52

Atoms # full

86 0 5 0 -10.882762726556463 -10.050435378091253 -9.07143461009162 0 0 0
484 18 1 -1.1128 -6.518946935577913 -7.835520707167341 -6.449852988843719 0 0 0
451 7 1 -1.1128 -8.913680856980662 -10.082975172326059 -6.599925491634286 1 0 0
452 7 2 0.5564 -8.540341190223165 -9.757722808179262 -5.780730904512672 1 0 0
453 7 2 0.5564 -9.356725908025759 -9.32422565251228 -6.979681889977421 1 0 0
485 18 2 0.5564 -6.008923891512325 -8.642627972893374 -6.518533649031117 0 0 0
486 18 2 0.5564 -5.862703653012453 -7.140238146944996 -6.403045621120547 0 0 0
1153 241 1 -1.1128 -6.892867816006385 -4.163334629281127 -6.583361527194568 0 0 0
1045 205 1 -1.1128 -10.58275286690271 -3.9963949431265084 -6.430212173837827 0 0 0
1154 241 2 0.5564 -6.306103144724282 -4.910384940030655 -6.701197450085266 0 0 0
1155 241 2 0.5564 -7.619894102282048 -4.508592677512939 -6.065267591925006 0 0 0
1047 205 2 0.5564 -9.997986696879286 -3.2925181950552305 -6.149379530077997 0 0 0
1046 205 2 0.5564 -10.03702369564094 -4.782634411879717 -6.413811190692114 0 0 0
291 0 5 0 -8.836182814168257 -4.037389658641383 -8.958258130662218 0 0 0
100 0 5 0 -6.801420065221128 -6.028245895093275 -8.964687194397175 0 0 0
99 0 5 0 -8.87166360166366 -8.081238839315585 -8.993028164405393 0 0 0
88 0 5 0 -6.749059621690465 -10.076822521540588 -9.036178637699207 0 0 0
98 0 5 0 -10.82133358178607 -6.016146844547722 -9.075431395165888 0 0 0
55 0 5 0 -6.810589658746623 -7.991716730108674 -10.973271225077415 0 0 0
56 0 5 0 -8.832219951817505 -6.014970081679075 -11.043761699393276 0 0 0
219 0 5 0 -10.87024439937722 -3.990926833325659 -11.040563749116783 0 0 0
223 0 5 0 -6.793774875174568 -3.9974004504843914 -11.034791976958598 0 0 0
32 0 5 0 -8.807289254926884 -10.025635258856077 -10.991236567645009 0 0 0
51 0 5 0 -10.82304859867054 -8.05764534620823 -11.08765305203454 0 0 0
30 0 5 0 -6.672428892039739 -10.053046063507727 -12.901075421132195 0 0 0
222 0 5 0 -6.8866539386836605 -1.9689670026582649 -12.915555063895347 0 0 0
218 0 5 0 -10.854901530926943 -1.9592931524212094 -13.046063107941562 0 0 0
292 0 5 0 -6.928742924948029 -1.9175193926955707 -9.006360341187841 0 0 0
221 0 5 0 -8.802155799758827 -3.9585150067461328 -12.992450404457724 0 0 0
224 0 5 0 -8.837830793737478 -1.9019520607636127 -10.936914752949274 0 0 0
290 0 5 0 -10.893453438457692 -1.9995594317690724 -8.932736806997111 0 0 0
50 0 5 0 -10.867497001255199 -6.062763643117438 -13.007035230039381 0 0 0
54 0 5 0 -6.790640879329838 -6.012249415156494 -12.947248984611393 0 0 0
53 0 5 0 -8.825505295633784 -8.062951438331098 -13.081795759006038 0 0 0
26 0 5 0 -10.865851838307874 -10.055957938187047 -13.073805838480174 0 0 0
36 0 5 0 -4.756997086210002 -10.021328544879601 -10.892529848572421 0 0 0
481 17 1 -1.1128 -4.993127272489751 -10.21135335557615 -6.39972758857458 0 0 0
547 39 1 -1.1128 -4.688601491952529 -5.880869333548883 -6.145274060817221 0 0 0
101 0 5 0 -4.748035498983632 -7.956246129471068 -8.975450562168259 0 0 0
60 0 5 0 -4.79625295057304 -5.948467757711983 -10.978701345310764 0 0 0
225 0 5 0 -4.78141606683959 -3.9073329384177513 -13.009510471594401 0 0 0
57 0 5 0 -4.80925407287406 -7.966717598799303 -12.884550188616911 0 0 0
1048 206 1 -1.1128 -8.956195274522235 -1.7836872338540992 -6.579894510547306 0 0 0
964 178 1 -1.1128 -4.775864964914298 -2.4230279464000484 -6.33171541377081 0 0 0
228 0 5 0 -4.804543809843119 -1.982492281915347 -10.894045530209493 0 0 0
293 0 5 0 -4.838947705681141 -3.951158105659203 -8.947415136801364 0 0 0
1050 206 2 0.5564 -9.264378110958576 -1.9498993908522557 -7.470743158095434 0 0 0
1049 206 2 0.5564 -9.649060563343708 -1.257801250894583 -6.180427515266494 0 0 0
459 9 2 0.5564 -8.158609318995135 -6.787370379241003 -6.263735317195912 0 0 0
458 9 2 0.5564 -9.551693783403193 -6.811811643954853 -6.855860559345663 0 0 0
457 9 1 -1.1128 -8.910018561373263 -6.225870835353835 -6.454458182321442 0 0 0
962 177 2 0.5564 -11.613986980863544 -8.589858840898353 -6.443095107702229 0 0 0
961 177 1 -1.1128 -10.868616564762927 -7.99636187133683 -6.534634366705318 0 0 0
963 177 2 0.5564 -10.450636989364085 -8.001414622905397 -5.673518320890812 0 0 0
965 178 2 0.5564 -5.59894256141936 -2.8441973202009234 -6.579403906073471 0 0 0
1474 0 3 1.1 -4.52867610837833 -7.450761044324463 -0.6544170126913343 31 1 0
1097 222 2 0.5564 -3.4143751461393825 -8.935784414359807 -3.3026708139756953 29 1 0
1455 341 2 0.5564 -2.913719954555061 -5.49188207827308 -2.053725000938362 27 2 0
1096 222 1 -1.1128 -2.8130770085616166 -8.86172703026084 -2.5616215867025427 29 1 0
675 81 2 0.5564 -4.767402265608161 -3.308976549206835 -4.558012780298302 29 0 0
1098 222 2 0.5564 -2.4778687017295526 -9.749324218869104 -2.4349200433273372 29 1 0
848 139 2 0.5564 -6.536031474007076 -11.379160064947724 -6.44571798988401 4 0 0
1437 335 2 0.5564 -5.533883740728293 -1.0714530949614627 -3.5702521045935276 27 1 0
673 81 1 -1.1128 -4.1674330616639 -3.5492014413691946 -3.851945715411885 29 0 0
674 81 2 0.5564 -4.594058890213544 -4.286137823356044 -3.4147680671724316 29 0 0
261 0 5 0 7.305178673015031 -0.08022370236927104 -13.114432880544388 0 0 0
634 68 1 -1.1128 -3.7023306090179693 -1.9926874949205684 -0.2765854550423098 30 0 0
85 0 5 0 11.273589335755798 -12.055074088759321 -9.129029320305968 -1 0 0
664 78 1 -1.1128 -4.99920324592879 -11.901131423792286 -4.03428101270313 28 0 0
639 69 2 0.5564 -5.528123342705879 -7.654076768378129 -3.464348274670981 30 0 0
637 69 1 -1.1128 -5.7837842146094545 -8.450024155415365 -3.93055712141524 30 0 0
638 69 2 0.5564 -6.008688557647181 -8.150451468988262 -4.811404596092858 30 0 0
1477 0 4 -1.1 -4.982838525891031 -5.943136340965268 -2.39700920066986 24 0 0
483 17 2 0.5564 -5.02811892864341 -10.05381376491533 -5.456230443303032 0 0 0
681 83 2 0.5564 -6.980836398206939 -3.367552237623243 -1.5014739671649837 28 0 0
1482 0 4 -1.1 -6.0252262928317375 -9.430046625393649 -0.6905758488474989 30 1 0
701 90 2 0.5564 -6.45955721576988 -11.060172160137896 -3.8766443652652858 30 0 0
1101 223 2 0.5564 -9.785794072926734 -2.11278736108855 -0.649776394584678 30 0 0
39 0 5 0 1.2324135395877802 -12.077797237205266 -10.8960614149549 0 0 0
700 90 1 -1.1128 -7.348840358064736 -10.770202534789767 -4.080054114054699 30 0 0
1469 0 3 1.1 -4.757822435836923 -0.1891056837949514 -6.215542492256382 18 0 0
1117 229 1 -1.1128 -9.332691988072606 -0.35260453418601156 -0.013554363225201871 31 0 0
1085 218 2 0.5564 4.8714632975864856 -4.848597900021015 -0.18946731702103453 28 0 0
543 37 2 0.5564 -10.089804973711773 -11.23994754069786 -6.86051813193927 0 0 0
800 123 2 0.5564 -7.547062212124442 -5.055068107658161 -4.085192054987934 28 0 0
764 111 2 0.5564 -8.125969787320699 -1.5087932658685246 -2.9473197607633193 29 0 0
642 70 2 0.5564 -2.4192614971069926 -4.840281046609924 -0.10831952584862536 29 -1 0
549 39 2 0.5564 -4.051642994735895 -6.594293866741452 -6.184886164778942 0 0 0
482 17 2 0.5564 -4.087042356316191 -10.01954406287903 -6.64159799509294 0 0 0
765 111 2 0.5564 -7.648022935551319 -2.7306217390782637 -3.702699984103372 29 0 0
592 54 1 -1.1128 6.004126173884842 -2.474890809919952 -0.1252255633397392 31 -1 0
601 57 1 -1.1128 -11.156401709651744 -2.6066651412253803 -3.739665365272342 29 0 0
744 104 2 0.5564 -6.871617727638705 -6.409224180748285 -2.091436154736629 31 0 0
742 104 1 -1.1128 -7.714368337242496 -6.8597439293089115 -2.0359445419606557 31 0 0
1470 0 3 1.1 -7.639439695404752 -9.068247291981846 -2.591789895984412 30 1 0
799 123 1 -1.1128 -8.307105635196406 -4.477945140938578 -4.159583831657726 28 0 0
517 29 1 -1.1128 9.380982799477255 -11.865264428915012 -6.551893764232359 -1 0 0
801 123 2 0.5564 -9.057841933820297 -5.046528155110212 -3.9884042002112907 28 0 0
1014 194 2 0.5564 -9.485454445845033 -10.629661296243572 -0.676838859591177 30 0 0
763 111 1 -1.1128 -7.331122644192943 -1.9648467387973523 -3.223767679897966 29 0 0
702 90 2 0.5564 -7.830859778324772 -11.578581209026686 -4.254365222099841 30 0 0
1012 194 1 -1.1128 -9.531294102069623 -10.273644756824808 -1.5641863210508495 30 0 0
743 104 2 0.5564 -8.039623094004643 -6.653257951525818 -1.159707944507539 31 0 0
25 0 5 0 11.30476784370195 -12.07622191775367 -13.142797347715819 -1 0 0
951 173 2 0.5564 -10.552015350780525 -10.905264964953409 -3.0391708402167503 28 1 0
29 0 5 0 -8.885485095509276 -12.051218769230067 -13.024572361544289 0 0 0
72 0 5 0 7.234870185301301 -5.976564670228993 -11.05669763554464 0 0 0
1013 194 2 0.5564 -10.277019883607618 -9.673916238742082 -1.5439487447361138 30 0 0
433 1 1 -1.1128 -9.605883058478547 -8.282450762616309 -4.154132267482884 0 0 0
899 156 2 0.5564 -7.762744312641523 -0.587426921338928 -6.42223390191651 0 0 0
680 83 2 0.5564 -5.942229437614761 -4.453620285799303 -1.3180597859799037 28 0 0
574 48 1 -1.1128 -10.938693159352505 -0.09822066749523196 -5.668340273514558 2 -1 0
41 0 5 0 3.228180555833005 -12.09040391744112 -12.919441515889785 0 0 0
890 153 2 0.5564 11.869382666157055 -6.6309771328032205 -6.625915985334837 1 0 0
87 0 5 0 -8.82065309610604 -12.092876344399265 -9.157983083294907 0 0 0
1435 335 1 -1.1128 -4.943173215876415 -0.4696093333082597 -4.023076856071832 27 1 0
555 41 2 0.5564 -6.625383533531493 -1.2050062385705476 -1.5008669615069985 32 0 0
949 173 1 -1.1128 -10.907222029043044 -11.338106108927445 -3.815525369785355 28 1 0
603 57 2 0.5564 -10.871610639571708 -2.9844777149654913 -2.9075640872139803 29 0 0
435 1 2 0.5564 -10.106723844508885 -7.466907116500644 -4.170141387943958 0 0 0
1038 202 2 0.5564 11.207460086718543 -9.463407547723033 -0.6539843658944696 30 1 0
1305 291 2 0.5564 -12.091098614380455 -2.5834085011056827 -6.510850952661526 23 0 0
915 161 2 0.5564 8.88261653619783 -0.6679120821801593 -6.748665030648079 0 0 0
434 1 2 0.5564 -10.266425566517773 -8.967837039661651 -4.0535269835564955 0 0 0
1282 284 1 -1.1128 -10.880503668426547 -5.7814807154794945 -3.8237376798157108 30 0 0
1284 284 2 0.5564 -11.018598328784723 -5.9342330866169855 -2.8889536583960664 30 0 0
1018 196 1 -1.1128 10.481865446199352 -0.04868246060229455 -4.0620085871505704 29 0 0
540 36 2 0.5564 -5.516422264771139 -11.527040135776366 -1.0950879634287753 30 1 0
612 60 2 0.5564 12.015736655460927 -6.1518742664682495 -0.17759020559609495 28 -1 0
235 0 5 0 5.269736458868612 -3.8902538685889425 -11.114133817298612 0 0 0
1119 229 2 0.5564 -8.382852967663654 -0.2342740751575277 -0.004133029694391971 31 0 0
1436 335 2 0.5564 -4.100579392058036 -0.5842522593358456 -3.5835689171268976 27 1 0
548 39 2 0.5564 -4.178000608367063 -5.118133847898614 -5.873636013289606 0 0 0
1324 298 1 -1.1128 -2.731788241158367 -1.471347333704986 -2.865520287081491 11 0 0
1326 298 2 0.5564 -3.0918727292263872 -2.2480499757269374 -3.293640542902968 11 0 0
1453 341 1 -1.1128 -2.0077174014585975 -5.538453348397034 -1.748482251865792 27 2 0
1454 341 2 0.5564 -1.4946733165319952 -5.155889854462705 -2.4603024672831872 27 2 0
1325 298 2 0.5564 -3.087000567278959 -1.500555677282807 -1.9771593179642226 11 0 0
35 0 5 0 -2.787681076839852 -12.089281412802082 -10.930565934983843 0 0 0
470 13 2 0.5564 10.166994708874723 -7.972145301652914 -5.748189810398487 0 0 0
966 178 2 0.5564 -4.098214368217021 -3.0420072206799462 -6.603605056016883 0 0 0
578 49 2 0.5564 -0.38028139153523854 -10.52131134363204 -0.6744217310607787 31 1 0
1084 218 1 -1.1128 4.169853508345982 -4.740832613635345 -0.8316457413695586 28 0 0
849 139 2 0.5564 -7.929927474169223 -11.859470581117364 -6.789604464464286 4 0 0
988 186 1 -1.1128 0.7986158868346425 -6.466254191701857 -0.748379875018522 29 1 0
1337 302 2 0.5564 2.5500227470990477 -10.109083725476435 -4.313674554176887 16 0 0
1462 0 3 1.1 -1.1045834710256786 -7.680152885131018 -1.4342181443413466 19 0 0
1249 273 1 -1.1128 -0.3178012022587431 -8.034647132215891 -3.498200087856689 29 -1 0
1250 273 2 0.5564 -0.8544866796884031 -8.736705612970942 -3.866012558277291 29 -1 0
1086 218 2 0.5564 3.961489491292452 -5.632242489711605 -1.1112693410010899 28 0 0
1251 273 2 0.5564 0.5794753167573027 -8.362994101556811 -3.5561947215251357 29 -1 0
577 49 1 -1.1128 0.003957317085922268 -9.71670193820557 -1.0225228145752967 31 1 0
579 49 2 0.5564 0.7109901747944515 -10.016143853084623 -1.594113272759574 31 1 0
1423 331 1 -1.1128 -0.10626966912048763 -1.6661206887564877 -3.2657020437936115 27 0 0
1424 331 2 0.5564 -1.029301883089975 -1.7281588153573522 -3.0200550536869697 27 0 0
989 186 2 0.5564 1.6713085742499736 -6.766189325012507 -1.002799371514947 29 1 0
1425 331 2 0.5564 0.2677886840017469 -1.0468307800047905 -2.6389552349183214 27 0 0
990 186 2 0.5564 0.9004392447589089 -5.525244105142556 -0.6056591321800668 29 1 0
777 115 2 0.5564 1.9200294922241479 -11.278849647703014 -6.839906063857537 30 0 0
1490 0 4 -1.1 3.6462907337382475 -7.790314516001456 -1.6717036564081993 29 0 0
782 117 2 0.5564 2.4916919584308923 -1.1695262981791914 -1.280519652013971 29 0 0
1336 302 1 -1.1128 1.9882572101723113 -9.608923205428052 -3.721625018077531 16 0 0
1338 302 2 0.5564 2.588334412034713 -9.248660641802017 -3.068644649575916 16 0 0
695 88 2 0.5564 2.910748348774589 -6.237660201303862 -3.0478235277527546 29 -1 0
696 88 2 0.5564 2.862793986603049 -5.8912145538375995 -4.520769172835056 29 -1 0
694 88 1 -1.1128 2.635096664040519 -5.551293821752244 -3.655406725063819 29 -1 0
1160 243 2 0.5564 2.1214956958762023 -2.5320825162438614 -3.526819415096938 30 0 0
677 82 2 0.5564 5.88195891458903 -10.433533806839195 -0.9374728033250219 27 0 0
1219 263 1 -1.1128 -0.19473189148810327 -4.74382264951773 -4.04598823050165 27 1 0
1220 263 2 0.5564 0.6809225083726639 -4.965532481528228 -3.7291956601309684 27 1 0
1159 243 1 -1.1128 3.002743318596219 -2.903395466206231 -3.4854466350786115 30 0 0
1161 243 2 0.5564 2.8636843994295553 -3.850288680692271 -3.46869002091503 30 0 0
46 0 5 0 9.287946397075094 -10.047540620860302 -13.044214476385058 0 0 0
1221 263 2 0.5564 -0.4876475096459152 -5.527980124494032 -4.510225524830174 27 1 0
1472 0 3 1.1 4.758951380414719 -2.8410336997667045 -1.928382453433777 28 0 0
1032 200 2 0.5564 -1.6619598373294935 -0.634267018555156 -6.7597033457146996 0 0 0
1378 316 1 -1.1128 -2.5258112308441287 -3.753582059055095 -6.5886175353582885 9 -1 0
1380 316 2 0.5564 -1.8837815263573077 -3.0611711412923026 -6.431665878005019 9 -1 0
1379 316 2 0.5564 -2.026648516163648 -4.566371224055356 -6.508199319873595 9 -1 0
887 152 2 0.5564 0.07829882340411055 -2.9685707887239885 -6.242363843883225 0 0 0
62 0 5 0 1.2667254005716146 -6.058300890890945 -13.073474713134207 0 0 0
294 0 5 0 -2.6819004542710596 -1.9860585996660394 -8.91714974724355 0 0 0
64 0 5 0 -0.7046043757674905 -6.028467377584493 -10.959050614385953 0 0 0
59 0 5 0 -2.757553222097302 -7.98028856659107 -10.96294437537612 0 0 0
232 0 5 0 -0.7171938266317067 -1.9601668657407298 -10.981880604765932 0 0 0
885 151 2 0.5564 0.1363064838459862 -5.31276431625503 -6.578331189138543 0 0 0
883 151 1 -1.1128 -0.537666130978683 -5.992303160955253 -6.59435865522585 0 0 0
884 151 2 0.5564 -0.04859345754173122 -6.814959202828664 -6.611767737736865 0 0 0
1058 209 2 0.5564 1.6729380198975763 -8.165181675224447 -5.830513127185022 0 0 0
530 33 2 0.5564 -2.112845692278077 -11.0125143802378 -5.807664827170541 0 0 0
969 179 2 0.5564 -1.9586813996994281 -7.410664467858018 -6.08584318895706 0 0 0
531 33 2 0.5564 -0.6590917084869845 -10.59012156433117 -5.816335976172255 0 0 0
551 40 2 0.5564 2.165213325692875 -3.4787007392106157 -6.722969364406434 0 0 0
968 179 2 0.5564 -2.4422890181684473 -8.768841129757632 -5.623916338528999 0 0 0
967 179 1 -1.1128 -2.755479602696743 -7.907343144666529 -5.899564719481871 0 0 0
529 33 1 -1.1128 -1.519620352403505 -10.33470026361905 -5.483866975176212 0 0 0
550 40 1 -1.1128 1.5061297308291988 -4.172482348629876 -6.699596972768538 0 0 0
1059 209 2 0.5564 1.6294912735630565 -8.531655889369427 -7.298744859967666 0 0 0
1057 209 1 -1.1128 1.104445149081829 -8.140903914009465 -6.60024756469149 0 0 0
552 40 2 0.5564 1.9748140322009387 -4.95826625334342 -6.980906057785284 0 0 0
295 0 5 0 -0.7052647230693898 -3.986231808407202 -8.968802711336222 0 0 0
102 0 5 0 -2.7476151795502815 -5.906355611792422 -8.895091045925458 0 0 0
104 0 5 0 1.264868215908818 -6.102292884365392 -9.01810970498736 0 0 0
103 0 5 0 -0.7691067588880336 -8.046717144929218 -9.010657100705108 0 0 0
90 0 5 0 -2.8668810210368503 -10.090378739012284 -8.84551304333169 0 0 0
92 0 5 0 1.302031461208916 -10.082707116209694 -9.000038833599053 0 0 0
63 0 5 0 1.2698232828916898 -8.0106126370841 -11.036088858729185 0 0 0
34 0 5 0 -2.7300107338273176 -10.001578224207947 -12.927342698676842 0 0 0
227 0 5 0 -2.7184097341864506 -3.954139826052334 -11.000585866984714 0 0 0
231 0 5 0 1.2918025521335506 -3.9474089144005036 -10.98644717733631 0 0 0
40 0 5 0 -0.8127518588362866 -10.111057021661548 -10.953042173300446 0 0 0
296 0 5 0 1.3745601757580588 -1.95762929626505 -8.951732137008396 0 0 0
886 152 1 -1.1128 -0.37715297257999825 -2.1966202715527254 -5.906342111484252 0 0 0
888 152 2 0.5564 -0.2654825818741828 -2.2464244401154883 -4.956980551033124 0 0 0
38 0 5 0 1.1967390556821766 -10.035425524158265 -12.97532274121478 0 0 0
58 0 5 0 -2.725043428232273 -5.969942031457921 -12.993769402101734 0 0 0
230 0 5 0 1.2143931597936541 -1.8853888755701083 -13.011143436833354 0 0 0
61 0 5 0 -0.712646031754623 -8.06875238951845 -12.962327437287431 0 0 0
226 0 5 0 -2.7400727364743207 -1.9750492748618818 -13.006281811048304 0 0 0
229 0 5 0 -0.7473487279130506 -3.925542176024324 -12.963619607196549 0 0 0
65 0 5 0 3.2761295873691756 -8.028732277711635 -13.058914140324918 0 0 0
297 0 5 0 3.2276384794180033 -4.058483512963715 -8.943932059318566 0 0 0
233 0 5 0 3.145418160100246 -3.943741264053804 -13.0473789758188 0 0 0
236 0 5 0 3.2429299277224017 -1.945443222260069 -10.956661357011761 0 0 0
44 0 5 0 3.2472073601751874 -10.026969314476863 -11.011702420411629 0 0 0
68 0 5 0 3.2267853216712408 -5.918214113645911 -11.051833141857603 0 0 0
472 14 1 -1.1128 5.3862623131555445 -8.014966142266784 -6.6990490850362985 0 0 0
105 0 5 0 3.345182761114606 -8.056830139468989 -8.904888766073654 0 0 0
994 188 1 -1.1128 3.1713556170053274 -2.09887759261003 -6.335365162620673 4 0 0
487 19 1 -1.1128 3.445841803289697 -6.2459958127986495 -6.465324530188753 0 0 0
995 188 2 0.5564 2.743559615723525 -1.2503594258132216 -6.450343266224503 4 0 0
996 188 2 0.5564 3.11949712522266 -2.268299220707664 -5.394707273980839 4 0 0
447 5 2 0.5564 4.105925196082139 -9.476058407972449 -6.808616370801226 0 0 0
488 19 2 0.5564 3.95738678777752 -7.046707697419051 -6.581245395092165 0 0 0
908 159 2 0.5564 0.720013736658577 -0.69445496731375 -6.229309148094283 0 0 0
678 82 2 0.5564 5.035241697462608 -11.68486763457878 -1.0330282234878332 27 0 0
676 82 1 -1.1128 5.825625786523099 -11.27691385869981 -1.386662670234911 27 0 0
553 41 1 -1.1128 -6.49095367320847 -0.7431922138908829 -0.673291172224485 32 0 0
798 122 2 0.5564 4.8027852667598 -0.4114947614433838 -3.324904337247574 28 0 0
781 117 1 -1.1128 2.9784133976118414 -1.7880797355516718 -0.7358171958726095 29 0 0
835 135 1 -1.1128 -2.004406796881146 -11.73068218072018 -2.8012492384764225 12 0 0
901 157 1 -1.1128 -9.956219707810991 -0.25363387570568147 -2.902365483340532 1 0 0
33 0 5 0 -4.731606513481118 -12.00664906101995 -12.984750379272965 0 0 0
446 5 2 0.5564 3.9376938401275043 -10.971109507864151 -6.640045879726359 0 0 0
1213 261 1 -1.1128 0.8497875471138374 -3.5872018208623633 -1.4325561126738484 29 1 0
91 0 5 0 -0.7595229819939482 -12.033824302188094 -8.886636600786726 0 0 0
300 0 5 0 9.404742502601323 -1.977338532716572 -9.039179934018614 0 0 0
445 5 1 -1.1128 3.4413167688989232 -10.164227753171238 -6.777194145224216 0 0 0
1215 261 2 0.5564 1.6431437854086388 -3.107371412201772 -1.194606720191237 29 1 0
1214 261 2 0.5564 0.35262394774566885 -2.974943303859017 -1.9749322874492572 29 1 0
775 115 1 -1.1128 1.36690721342884 -12.028939925339156 -6.621551474069801 30 0 0
240 0 5 0 7.271406750342865 -1.9594479279628008 -10.99172966672608 0 0 0
1076 215 2 0.5564 4.480066745037343 -3.1740689414579917 -6.723218526933054 8 0 0
466 12 1 -1.1128 7.370963303338554 -6.063409465209223 -6.6609440340583435 0 0 0
837 135 2 0.5564 -1.7272244149090743 -11.350090600912322 -3.634655355947471 12 0 0
45 0 5 0 7.235529437896675 -12.056461966602123 -13.088869529491351 0 0 0
554 41 2 0.5564 -5.5472604414779285 -0.7934668653194749 -0.5209753696668952 32 0 0
836 135 2 0.5564 -2.926782118170865 -11.950131196452222 -2.9325851757244945 12 0 0
37 0 5 0 -0.839170323435319 -12.063048007195889 -12.96724689456735 0 0 0
891 153 2 0.5564 -11.950426719752222 -5.196786661670508 -6.38418712673685 2 0 0
31 0 5 0 -6.770808330955864 -12.071562162816155 -10.96813656871061 0 0 0
1468 0 3 1.1 7.350823804892044 -6.929199041697697 -0.3032168823279349 31 1 0
602 57 2 0.5564 -10.920310816215562 -1.6811968520765328 -3.676316187005585 29 0 0
902 157 2 0.5564 -9.944927953023312 -0.38222266200494615 -1.9539086079738048 1 0 0
96 0 5 0 9.276473994910361 -10.009727227593798 -9.152690366772594 0 0 0
796 122 1 -1.1128 5.502654377167399 -0.7316310965800613 -2.755790096510383 28 0 0
797 122 2 0.5564 6.309018006075752 -0.5313360824230341 -3.2311138369154735 28 0 0
632 67 2 0.5564 6.391425130473194 -4.473418747236711 -3.9453939915851275 30 -1 0
631 67 1 -1.1128 6.522687637878941 -3.831642737505906 -3.2474552566453063 30 -1 0
630 66 2 0.5564 6.534986342145989 -6.3590581382730065 -5.211949963160251 27 -1 0
628 66 1 -1.1128 6.073047404132647 -6.345087501346558 -4.373692596477057 27 -1 0
629 66 2 0.5564 5.5401013603555525 -7.140153384386661 -4.380091683848771 27 -1 0
474 14 2 0.5564 5.871576825398673 -7.219074701744151 -6.916493090011024 0 0 0
616 62 1 -1.1128 6.4416880775622705 -11.375535620282406 -4.1742859164577615 28 0 0
618 62 2 0.5564 6.010512500677091 -11.206827134944444 -3.336532650634316 28 0 0
27 0 5 0 -10.867657146145119 -12.092310580364105 -11.150019398088363 0 0 0
495 21 2 0.5564 10.128355077251756 -4.736809168720536 -6.736780162917054 0 0 0
1304 291 2 0.5564 11.749638833413307 -1.2670416183959219 -5.878660812773483 22 0 0
717 95 2 0.5564 -12.0882740255685 -10.578682599305267 -6.645544689264242 7 0 0
220 0 5 0 11.38445836445711 -1.9835226297276682 -11.023761213934218 -1 0 0
69 0 5 0 7.347744018675848 -7.973853292903938 -13.010247609507559 0 0 0
750 106 2 0.5564 7.651432404390505 -4.685526137919753 -1.833090298741534 26 0 0
1030 200 1 -1.1128 -2.5012089860040216 -0.2361141493310201 -6.52858973108732 0 0 0
1100 223 2 0.5564 -9.893650653918867 -3.5370271314374975 -0.14797665788631612 30 0 0
748 106 1 -1.1128 8.168216973668374 -5.1994035256738576 -1.21255264326692 26 0 0
907 159 1 -1.1128 1.445298126168644 -0.14717451467617176 -6.530381293330845 0 0 0
1373 314 2 0.5564 7.1369340934501855 -7.411096740547584 -3.215873173239247 28 0 0
1372 314 1 -1.1128 7.591354837149652 -7.64801192740816 -2.407428060772446 28 0 0
633 67 2 0.5564 6.954114306727905 -3.093623091333622 -3.678103588999789 30 -1 0
1374 314 2 0.5564 8.169593874059139 -8.368050783767002 -2.659315701277309 28 0 0
1197 255 2 0.5564 10.57760679129581 -7.595610061030063 -3.8966319750441034 28 2 0
473 14 2 0.5564 6.062144890125677 -8.653716420054293 -6.472212832200452 0 0 0
679 83 1 -1.1128 -6.517565900792344 -3.8659465455319024 -0.8282790640855471 28 0 0
749 106 2 0.5564 8.998318153467308 -5.355477707327442 -1.6629387267074107 26 0 0
49 0 5 0 11.304826995354304 -8.020702257815488 -13.088740851648978 -1 0 0
28 0 5 0 11.393183494706925 -9.980973881698082 -11.039367100255 -1 0 0
1289 286 2 0.5564 8.819082525362191 -0.9915432992239311 -3.782171883429471 29 -1 0
1170 246 2 0.5564 8.282237337416205 -10.319808697292018 -3.97630736945261 25 1 0
1288 286 1 -1.1128 8.24466986071733 -1.747470729618719 -3.9041961865907515 29 -1 0
1195 255 1 -1.1128 11.083061529999862 -8.367379877310427 -4.151761030720204 28 2 0
1196 255 2 0.5564 10.459063194681871 -9.091269373419967 -4.098736758364764 28 2 0
582 50 2 0.5564 10.194246168189697 -5.094081698499971 -3.185290300547373 28 -2 0
580 50 1 -1.1128 10.29487246985216 -5.937790897536162 -2.7445430969445885 28 -2 0
581 50 2 0.5564 11.085094898815383 -5.8384121411633405 -2.213556611993181 28 -2 0
1168 246 1 -1.1128 9.082969066786125 -10.04526130309203 -3.529496202553784 25 1 0
469 13 1 -1.1128 9.519299867232434 -7.873579611833259 -6.4460761590139 0 0 0
97 0 5 0 11.359094262303039 -7.915280262478072 -8.92100479676469 -1 0 0
494 21 2 0.5564 9.89898613426153 -3.2578729298317093 -6.964881150739255 0 0 0
476 15 2 0.5564 7.959439932846769 -10.607544365713412 -7.078387666697149 -1 0 0
239 0 5 0 9.322705741470468 -4.002833897961672 -10.998743310949413 0 0 0
1075 215 1 -1.1128 5.198457199852263 -3.797134178857013 -6.614129831630469 8 0 0
107 0 5 0 7.290194476888149 -8.068868106890625 -8.997969486324793 0 0 0
1077 215 2 0.5564 5.979009009759684 -3.2502523286586333 -6.525068200989058 8 0 0
493 21 1 -1.1128 9.439606098707083 -4.072496313796992 -6.760877554066371 0 0 0
106 0 5 0 5.3389710921374505 -5.984333488248987 -8.997970727823118 0 0 0
477 15 2 0.5564 8.087743523114312 -9.275858241917614 -6.369838157317747 -1 0 0
1169 246 2 0.5564 9.402956868467228 -10.83913644672204 -3.1009863429028237 25 1 0
93 0 5 0 3.2669871303481353 -12.077695608100091 -8.956683207274889 0 0 0
889 153 1 -1.1128 11.518949989841419 -5.745289978028232 -6.5310144486355215 1 0 0
1283 284 2 0.5564 -11.179402449918328 -4.883497629710472 -3.966909818634118 30 0 0
52 0 5 0 11.400951713854766 -5.968024877289249 -11.00850988600574 -1 0 0
716 95 2 0.5564 10.65163459510826 -10.444772479639548 -6.799466220797576 6 0 0
298 0 5 0 5.178969024817593 -1.97326065672605 -9.020570588508134 0 0 0
1122 230 2 0.5564 11.916858243851424 -8.799593661941238 -2.8832504139132475 30 -1 0
1290 286 2 0.5564 8.805775201342072 -2.5047060198526494 -3.736822279890088 29 -1 0
490 20 1 -1.1128 7.480028229050329 -2.325137226420587 -6.639331477634256 0 0 0
94 0 5 0 5.2526860534162285 -10.162912205543243 -9.059294815355983 0 0 0
611 60 2 0.5564 -10.95671150788984 -5.607080772219929 -0.8008051233413883 29 -1 0
489 19 2 0.5564 4.090491755476996 -5.540131245640103 -6.514859476506821 0 0 0
234 0 5 0 5.220370157719485 -2.0131544285610374 -13.1504476150988 0 0 0
70 0 5 0 9.335320441706061 -5.933413805287701 -12.993948302327722 0 0 0
289 0 5 0 11.36176646731266 -4.083819637589063 -9.039262997142675 -1 0 0
599 56 2 0.5564 11.22048606051852 -2.8954348858839953 -3.7877599456766875 26 -2 0
1303 291 1 -1.1128 11.447148650380637 -1.9325554237935363 -6.496591672144316 22 0 0
1017 195 2 0.5564 5.27928409667842 -0.8543433490710176 -6.56385206094086 0 0 0
1121 230 2 0.5564 -11.950993567825247 -8.00454655270244 -1.6498385580020527 31 -1 0
598 56 1 -1.1128 10.437289040975982 -3.401217000390906 -4.0046876102891185 26 -2 0
42 0 5 0 5.236173328071242 -9.971529327708 -12.937189863749177 0 0 0
67 0 5 0 5.2136472095497295 -8.03172265809662 -10.996399369715869 0 0 0
71 0 5 0 9.244819540768214 -7.947420404936836 -11.00948801914283 0 0 0
108 0 5 0 9.283255105718126 -5.943583484777728 -9.0335224991897 0 0 0
600 56 2 0.5564 10.360910564162097 -3.329025754408348 -4.9560984405751976 26 -2 0
471 13 2 0.5564 9.98739297557241 -7.41700215084466 -7.145134599080546 0 0 0
66 0 5 0 5.296509872786774 -5.935838032816094 -13.033545671624847 0 0 0
1099 223 1 -1.1128 -10.23565216830624 -2.941444803431939 -0.8147364543223626 30 0 0
610 60 1 -1.1128 -11.759816291198652 -6.083330771538274 -1.0117303319976922 29 -1 0
491 20 2 0.5564 7.58465075183581 -2.355972021026219 -5.688362750247571 0 0 0
1120 230 1 -1.1128 -11.70333895547471 -8.779526441001568 -2.1541110852749648 31 -1 0
299 0 5 0 7.372305210395853 -3.8536791085992106 -9.006477846031437 0 0 0
48 0 5 0 7.288339351673819 -10.039353239642846 -11.06148426321426 0 0 0
238 0 5 0 9.3699158065051 -1.975128426540197 -13.091765345519804 0 0 0
217 0 5 0 11.37042577066145 -4.028236963408367 -13.038100837165736 -1 0 0
492 20 2 0.5564 8.078820200917812 -2.995488480973359 -6.968483332805848 0 0 0
715 95 1 -1.1128 11.454276138456187 -9.928236342819844 -6.727733839231612 6 0 0
468 12 2 0.5564 7.992766698510306 -5.335756682049602 -6.648733714277264 0 0 0
467 12 2 0.5564 7.909429020438644 -6.836343241942103 -6.8309145047909094 0 0 0
237 0 5 0 7.312697109558694 -3.9805536162671618 -13.17168505461962 0 0 0
475 15 1 -1.1128 7.441151404651258 -9.879185048442398 -6.736142212070965 -1 0 0
47 0 5 0 9.288259145016465 -12.036210526368691 -11.034746149255112 0 0 0
1401 323 2 0.5564 0.23072121509492907 -0.4083194194930069 -0.1568682133006997 30 -1 0
95 0 5 0 7.35521107471229 -12.093932941381585 -8.955013600857045 0 0 0
43 0 5 0 5.315912872714536 -12.068553111586374 -11.088850752850577 0 0 0
1011 193 2 0.5564 5.232925487174656 -8.386168174827574 -0.6446331463223657 29 0 0
914 161 2 0.5564 10.26758192284926 -0.1075489270282168 -6.993115832951861 0 0 0
307 0 5 0 -0.6529303045690932 -0.052007056938483856 -8.944591925581335 0 0 0
541 37 1 -1.1128 -10.707326054345579 -11.971315060223816 -6.866389709755721 0 0 0
249 0 5 0 -4.726978646715833 -0.06967511983680255 -13.11843199534619 0 0 0
1065 211 2 0.5564 5.226189480876071 -11.83293736939685 -5.534411958796021 13 1 0
576 48 2 0.5564 -10.875375267354205 -0.09422899793564675 -4.713243202248021 2 -1 0
636 68 2 0.5564 -3.3827912803413414 -2.877174557169626 -0.09818073465161264 30 0 0
950 173 2 0.5564 -10.346635759109068 -12.10378937600857 -3.940977719377769 28 1 0
1009 193 1 -1.1128 5.897462481916622 -8.70929039608461 -0.03620865699533363 29 0 0
665 78 2 0.5564 -5.1238810174838445 -12.084369285575587 -3.103096614007219 28 0 0