LAMMPS data file via write_data, version 2 Aug 2023, timestep = 100000, units = real

1491 atoms
5 atom types
686 bonds
1 bond types
343 angles
1 angle types

-12.120000000000001 12.120000000000001 xlo xhi
-12.120000000000001 12.120000000000001 ylo yhi
-28.28 28.28 zlo zhi

Masses

1 15.9994
2 1.008
3 28.99
4 35.453
5 26.9815

Pair Coeffs # lj/cut/tip4p/long

1 0.185199 3.1589
2 0 0
3 0.0469 2.4299
4 0.15 4.0447
5 11.697 2.574

Bond Coeffs # harmonic

1 0 0.9572

Angle Coeffs # harmonic

1 0 104.52

Atoms # full

86 0 5 0 -10.885586392461963 -9.906845010792928 -9.142852379327385 0 0 0
484 18 1 -1.1128 -7.040199813978688 -7.829911785877276 -6.494830532272878 0 0 0
451 7 1 -1.1128 -10.711444364101398 -7.60558204984952 -5.953288946133621 1 0 0
544 38 1 -1.1128 -8.824431840378304 -5.646788594208082 -6.534398293452862 0 0 0
545 38 2 0.5564 -9.590947279530251 -5.078130734517151 -6.606993571330505 0 0 0
452 7 2 0.5564 -10.018087815769618 -7.087211246099623 -6.361719122248401 1 0 0
453 7 2 0.5564 -10.278245525256601 -8.057602904353583 -5.229221754910801 1 0 0
485 18 2 0.5564 -6.962971495227321 -7.27583295665378 -7.271534324807691 0 0 0
546 38 2 0.5564 -8.76802845200252 -5.855718016745621 -5.601981173742197 0 0 0
486 18 2 0.5564 -7.224605784263518 -7.218864311946057 -5.781501480170139 0 0 0
1153 241 1 -1.1128 -6.798039913499572 -3.7595077559500747 -6.54396529303788 0 0 0
1045 205 1 -1.1128 -10.832497412473275 -3.809456519480787 -6.353179470627466 0 0 0
1154 241 2 0.5564 -7.39789873885178 -3.047435613256046 -6.321875886418474 0 0 0
1155 241 2 0.5564 -7.362229918114995 -4.526247897909618 -6.643958578756641 0 0 0
1047 205 2 0.5564 -11.53356874097457 -4.450208113409166 -6.472042981967213 0 0 0
1046 205 2 0.5564 -11.287229729728692 -2.9763531646812074 -6.229220930477007 0 0 0
291 0 5 0 -8.862665363436314 -3.8795894697362896 -8.985008849838207 0 0 0
100 0 5 0 -6.897662307907243 -5.950123333913337 -9.066597451055081 0 0 0
99 0 5 0 -8.852400317688078 -7.895322927361511 -8.968753273832416 0 0 0
88 0 5 0 -6.796189651030253 -10.002249278745547 -9.087810668621165 0 0 0
98 0 5 0 -10.852641108610252 -6.007750435028529 -9.07187495789841 0 0 0
55 0 5 0 -6.812228499516121 -7.91277581175321 -11.045185415682605 0 0 0
56 0 5 0 -8.858568825318601 -5.8765195022669 -11.093771164394726 0 0 0
219 0 5 0 -10.891989017994703 -3.9265795114295674 -10.999752225532859 0 0 0
223 0 5 0 -6.8638802572175885 -3.930786032149019 -11.025309567842298 0 0 0
32 0 5 0 -8.781354302786232 -9.997016709677908 -11.078873649756522 0 0 0
51 0 5 0 -10.85303424523701 -7.901799613614669 -11.145825383686454 0 0 0
30 0 5 0 -6.794412230840784 -9.933206757138494 -13.069544357849292 0 0 0
222 0 5 0 -6.753881038275179 -2.008745292267738 -13.038617302482916 0 0 0
218 0 5 0 -10.838125482312352 -1.9181394724519214 -13.16836244579354 0 0 0
292 0 5 0 -6.792900560956879 -1.9361312508067487 -8.982998683340751 0 0 0
221 0 5 0 -8.735679132505044 -3.8822088444161813 -13.110218218875787 0 0 0
224 0 5 0 -8.835969457540681 -1.9437913160298899 -11.059278241706817 0 0 0
290 0 5 0 -10.98190788548946 -1.9822900456736978 -8.941535015025247 0 0 0
50 0 5 0 -10.967031081467661 -5.79536351176571 -13.078434212599273 0 0 0
54 0 5 0 -6.761324521858096 -5.895505451209017 -13.118593057286958 0 0 0
53 0 5 0 -8.801058243617693 -7.790848651446686 -13.008498116123656 0 0 0
26 0 5 0 -10.766310879332364 -9.935470135427158 -13.067824618819056 0 0 0
36 0 5 0 -4.796138907628746 -9.954950376576836 -11.045426666171554 0 0 0
481 17 1 -1.1128 -4.941867227962694 -9.689661830483486 -6.406382187799364 0 0 0
547 39 1 -1.1128 -4.549811249776498 -5.899727077403115 -6.262689741177173 0 0 0
101 0 5 0 -4.920208850008798 -7.990984131043255 -8.9202460309309 0 0 0
60 0 5 0 -4.799194162154827 -5.987640206110765 -10.98853326413086 0 0 0
225 0 5 0 -4.716630252614968 -3.9227752537794824 -12.991658617778908 0 0 0
57 0 5 0 -4.751035494713442 -7.975324127759755 -13.009281135011138 0 0 0
1048 206 1 -1.1128 -8.697571213094108 -2.0905054107122987 -5.524273617247309 0 0 0
964 178 1 -1.1128 -4.671073802428744 -2.0882058534139016 -6.512824052222856 0 0 0
228 0 5 0 -4.761667477862728 -1.8854366837657102 -11.010716822254658 0 0 0
293 0 5 0 -4.797234313804908 -4.002388921089397 -9.091875097273014 0 0 0
1050 206 2 0.5564 -8.355343966072867 -2.166911257247546 -4.6336024812054255 0 0 0
1049 206 2 0.5564 -9.461371612318397 -2.667222550555951 -5.538194178395554 0 0 0
872 147 2 0.5564 -8.488203289059982 -9.437435298249568 -6.985652920855061 1 0 0
873 147 2 0.5564 -8.04083024678135 -10.866418013964715 -6.762577773563538 1 0 0
871 147 1 -1.1128 -8.752631243483535 -10.25686703680423 -6.567496273927919 1 0 0
596 55 2 0.5564 -10.756431266902862 -1.5746372675039688 -0.36282300978832 3 -1 0
548 39 2 0.5564 -4.285064347959793 -5.12257824560935 -6.754824445894034 0 0 0
534 34 2 0.5564 -8.664935933186326 -8.1777878906481 -3.9261471138309396 3 0 0
1236 268 2 0.5564 -5.140045863712348 -7.773054105544135 -3.4578384305955923 2 1 0
1235 268 2 0.5564 -6.56110395635834 -7.377002078470374 -3.1177971590851654 2 1 0
1184 251 2 0.5564 -6.469038245171168 -4.989764958183975 -3.677789313675696 3 0 0
1183 251 1 -1.1128 -5.544678639417453 -4.778421991570031 -3.808466612415401 3 0 0
1234 268 1 -1.1128 -5.956144763656684 -8.118450184263386 -3.095952351280721 2 1 0
1178 249 2 0.5564 -4.329569227132488 -4.765799996952046 -2.565973741441041 2 0 0
1185 251 2 0.5564 -5.343173261267965 -5.113063301274593 -4.682339127348308 3 0 0
1481 0 4 -1.1 -8.17787026991294 -6.018476440495275 -3.694026841120038 2 0 0
1098 222 2 0.5564 -5.5897543418006626 -7.865210092966672 -1.123481866206813 3 0 0
480 16 2 0.5564 -6.0439374371026515 -11.268056368483121 -6.670097055179353 0 0 0
543 37 2 0.5564 -10.215271083582094 -11.249011071831344 -6.83953351149366 0 0 0
981 183 2 0.5564 -8.121952111113176 -3.7502992607859715 -2.8448689337074726 2 0 0
1016 195 2 0.5564 5.781596127045125 -0.19317081449427922 -5.943606209389869 0 0 0
533 34 2 0.5564 -8.880285075987688 -9.520309023550338 -4.591849750947613 3 0 0
979 183 1 -1.1128 -8.327732513410963 -2.822132170700104 -2.733495513512838 2 0 0
980 183 2 0.5564 -9.27822018844388 -2.7731329508327995 -2.8352486287834227 2 0 0
463 11 1 -1.1128 5.7208247644763395 -12.014892874944428 -6.542129228806889 0 0 0
716 95 2 0.5564 -5.282531519513439 -2.702498038561885 -3.539086847240598 3 0 0
717 95 2 0.5564 -4.041490172498017 -2.151407445458002 -2.8697449608729775 3 0 0
715 95 1 -1.1128 -4.977765221145878 -1.9865920084321136 -2.9815800590125283 3 0 0
483 17 2 0.5564 -5.739721490099944 -9.160881269359226 -6.403213065853619 0 0 0
938 169 2 0.5564 -5.729961593191585 -0.4965005157177824 -3.353018805029504 3 0 0
618 62 2 0.5564 -8.540414541020633 -2.3611854436981004 -0.9465475323109028 3 0 0
765 111 2 0.5564 -7.263140211424476 -9.797403426343925 -1.4842442866889158 3 0 0
965 178 2 0.5564 -5.388203990793866 -2.673537728788181 -6.7563469012567925 0 0 0
532 34 1 -1.1128 -9.311911257171689 -8.875349340122721 -4.03150884927965 3 0 0
875 148 2 0.5564 -10.158958913075022 -6.0648521891018135 -2.9724237819153783 2 0 0
1160 243 2 0.5564 -10.087495997875893 -9.09695750329103 -0.8385981814774679 3 0 0
917 162 2 0.5564 -8.448304682191925 -5.807834202664895 -1.5202788474743671 3 0 0
1230 266 2 0.5564 9.585526803365639 -5.911505467219255 -1.5804889930813382 3 0 0
1240 270 1 -1.1128 -0.10542781803628715 -7.5018904340530215 -0.4673360887168454 2 0 0
1232 267 2 0.5564 -10.597738308217602 -1.4650210537392874 -3.5750326185247427 3 0 0
874 148 1 -1.1128 -11.00138416310063 -6.152440568422672 -2.526409620932927 2 0 0
616 62 1 -1.1128 -8.777570761931372 -1.9397996178331367 -0.12044994781881435 3 0 0
916 162 1 -1.1128 -8.321188873134792 -5.573707180086984 -0.6009029639450024 3 0 0
89 0 5 0 -4.796514337950724 -12.022748137930241 -8.986203582110418 0 0 0
1159 243 1 -1.1128 -10.963556617820993 -8.798630344013972 -1.0831353220210627 3 0 0
1161 243 2 0.5564 -10.832158963718577 -7.906877122896912 -1.405238744044382 3 0 0
458 9 2 0.5564 -11.922534182740039 -10.310948250193949 -6.759745029371714 0 0 0
876 148 2 0.5564 -11.583267034178029 -5.552175266768481 -2.9925561546230957 2 0 0
764 111 2 0.5564 -8.430383353575278 -9.568073266322752 -2.4206421008822594 3 0 0
966 178 2 0.5564 -3.879441381752547 -2.552309531164386 -6.785224806080358 0 0 0
1262 277 2 0.5564 -5.046390358901368 -0.7466893638661765 -1.0555327238353567 3 0 0
848 139 2 0.5564 -6.303052094522902 -9.80879981648617 -3.699436389673922 3 0 0
763 111 1 -1.1128 -8.21950563743413 -9.764344672873003 -1.5078290976196256 3 0 0
1093 221 1 -1.1128 -4.373886120046175 -11.958519150938354 -2.4831836374268943 2 1 0
1231 267 1 -1.1128 -10.924271535269966 -2.310433733610807 -3.266968137867734 3 0 0
1096 222 1 -1.1128 -5.270752900746253 -7.445052154958536 -0.32478134094008226 3 0 0
549 39 2 0.5564 -4.013720752666288 -6.606123491884048 -6.623067568541949 0 0 0
756 108 2 0.5564 10.738427554607064 -7.430466309297493 -0.22034520397291482 2 -1 0
707 92 2 0.5564 1.549041009509422 -11.689476911723885 -0.9952424945578354 2 0 0
1228 266 1 -1.1128 9.767371530608237 -6.848167648864492 -1.5042223220615942 3 0 0
849 139 2 0.5564 -6.170452812168294 -10.84569435491772 -4.794498815720344 3 0 0
918 162 2 0.5564 -7.49147536782787 -5.096563981964168 -0.5872906231007824 3 0 0
85 0 5 0 11.357932409052752 -11.97659719998607 -9.156205688455085 -1 0 0
847 139 1 -1.1128 -6.483009468436627 -10.727843801046816 -3.8974654540845144 3 0 0
1302 290 2 0.5564 2.2108434314431706 -11.608402089614131 -4.0758206018071235 2 0 0
1233 267 2 0.5564 -11.112726040863206 -2.171176520138852 -2.33889805270938 3 0 0
757 109 1 -1.1128 -11.609783178343285 -4.48387361948932 -0.3514921880738075 3 -1 0
35 0 5 0 -2.786788307597958 -12.034610200670658 -10.990525469236049 0 0 0
988 186 1 -1.1128 0.7945721294890981 -2.422946938858019 -1.550273387866279 3 0 0
1242 270 2 0.5564 -0.9794192646746197 -7.207767954207911 -0.7238835911810061 2 0 0
755 108 2 0.5564 11.939913236951682 -8.348370159583084 -0.14436576102341053 2 -1 0
1188 252 2 0.5564 -4.818321758943303 -4.440124256013949 -0.5826818960666614 2 1 0
1286 285 2 0.5564 -7.4271921718734335 -12.052712221905097 -3.2991103969208204 3 0 0
675 81 2 0.5564 11.266622071420183 -11.345825011429644 -1.783484629482713 2 0 0
31 0 5 0 -6.842691953129351 -12.022481351285828 -11.020547422375932 0 0 0
1177 249 1 -1.1128 -3.641058815483843 -4.581329559164681 -1.927131647296939 2 0 0
27 0 5 0 -10.85716853278256 -11.945251158977808 -11.118137052663675 0 0 0
91 0 5 0 -0.8403305273792195 -12.04067255373234 -8.955853407112583 0 0 0
25 0 5 0 11.268525569006604 -12.02607332633287 -13.139695879156612 -1 0 0
1392 320 2 0.5564 -1.6639347573275654 -2.107293392295848 -1.0848167065213652 3 0 0
1125 231 2 0.5564 -1.4469931213774565 -0.9519970590406678 -3.7012859938253477 3 0 0
1124 231 2 0.5564 -2.0879254655589277 -2.323362286503298 -3.722636180388978 3 0 0
47 0 5 0 9.356437182243113 -11.975375434751696 -11.035758071751998 0 0 0
1244 271 2 0.5564 -3.09003169124526 -7.559757297261668 -4.589970513984308 2 0 0
541 37 1 -1.1128 -10.9090540389752 -11.908304383813185 -6.823271679519518 0 0 0
482 17 2 0.5564 -4.253792080222105 -9.087585010015575 -6.122968059899947 0 0 0
1245 271 2 0.5564 -3.0262039597748576 -8.848712340136784 -3.798505876277596 2 0 0
1243 271 1 -1.1128 -3.332813716674138 -7.943385488697937 -3.7472771330335903 2 0 0
43 0 5 0 5.241942921834731 -12.057506162682618 -11.051872985483294 0 0 0
1077 215 2 0.5564 11.510998913947967 -0.1443274029933309 -0.6328824530454196 2 0 0
1179 249 2 0.5564 -3.323133104043291 -5.444099024720598 -1.6610447204185619 2 0 0
1300 290 1 -1.1128 3.083366515837378 -11.301806574674798 -4.322571809940181 2 0 0
923 164 2 0.5564 1.2374281960704596 -3.2247407093595917 -4.946192488980228 0 0 0
924 164 2 0.5564 1.0464983577592688 -2.7020056202708203 -3.5382889468220475 0 0 0
615 61 2 0.5564 -3.5094139712247534 -7.304840214824932 -0.8499126522330446 2 0 0
613 61 1 -1.1128 -2.665220543409032 -7.015326543345745 -1.1958989612440525 2 0 0
614 61 2 0.5564 -2.612311766964496 -7.414081498443853 -2.064478905756109 2 0 0
996 188 2 0.5564 -1.0176534285914038 -4.503440349279164 -3.5984570789041808 3 0 0
782 117 2 0.5564 2.6892983716142407 -7.718449749132712 -1.7939199596818247 3 0 0
994 188 1 -1.1128 -1.8206641897500553 -4.07100945611445 -3.8890602580092 3 0 0
995 188 2 0.5564 -2.490824815056734 -4.371878896098001 -3.2754142185454183 3 0 0
1013 194 2 0.5564 0.15537956980607692 -8.167641377716238 -3.709623177052076 2 0 0
527 32 2 0.5564 -2.3151800410437056 -11.335885608804196 -6.784944379084809 0 0 0
668 79 2 0.5564 3.14966858526793 -10.228188257719017 -1.5595686905939972 2 0 0
663 77 2 0.5564 3.6340974037947937 -5.339390180550367 -0.7255044929472495 3 0 0
781 117 1 -1.1128 2.6395614442474256 -7.346839798492422 -0.9132005073843888 3 0 0
783 117 2 0.5564 1.7256910367377505 -7.464842902805393 -0.6541688492350958 3 0 0
608 59 2 0.5564 3.0966816634427996 -8.602751484981871 -4.103198828594935 2 0 0
1010 193 2 0.5564 3.1748061097742224 -1.6565127749023063 -3.6507048573326313 2 0 0
87 0 5 0 -8.912086466238586 -11.885443312849597 -9.043755380030694 0 0 0
1014 194 2 0.5564 0.5064456191514157 -9.586119033555146 -3.313933586995085 2 0 0
1012 194 1 -1.1128 0.5685568509960439 -8.965386252525283 -4.03992414163259 2 0 0
648 72 2 0.5564 0.3900969871463919 -5.553624609293535 -0.4476218417433542 2 -1 0
646 72 1 -1.1128 0.6521687174878013 -4.6770234741906265 -0.1663626739166888 2 -1 0
1009 193 1 -1.1128 3.979809319336032 -1.170225939211908 -3.4727072911697126 2 0 0
1011 193 2 0.5564 4.450415868056724 -1.7095076804126454 -2.8371259244444293 2 0 0
571 47 1 -1.1128 0.3299622047521917 -5.844599975360357 -3.9137812906234033 2 -1 0
572 47 2 0.5564 0.17514375357172896 -5.6245896839545635 -4.832395028679494 2 -1 0
573 47 2 0.5564 1.1608494242449097 -5.419160340801968 -3.701872551095424 2 -1 0
665 78 2 0.5564 2.548405597426754 -4.2856046125731035 -3.532378745256374 1 -1 0
664 78 1 -1.1128 3.1137734303806073 -5.056798354514364 -3.489707946131739 1 -1 0
887 152 2 0.5564 -1.744417726720205 -0.9423296744621243 -6.359990557584628 0 0 0
62 0 5 0 1.2216356271182982 -5.866517451443456 -13.002415367982278 0 0 0
294 0 5 0 -2.7994841810291646 -1.9563495090452976 -8.98536838593563 0 0 0
64 0 5 0 -0.8135433389801702 -5.96809388111197 -10.870131697593896 0 0 0
59 0 5 0 -2.7036599205276257 -7.95960132131779 -10.999106982936206 0 0 0
232 0 5 0 -0.7294122245455915 -1.8808329477485162 -10.939783854533404 0 0 0
885 151 2 0.5564 -2.1076651590126376 -3.1127448403944107 -6.9799675759383755 0 0 0
889 153 1 -1.1128 1.0219951229946187 -4.140851129406646 -6.478323013113148 0 0 0
883 151 1 -1.1128 -2.6167657222720955 -3.8946806659432505 -6.766296435068982 0 0 0
884 151 2 0.5564 -2.708493803492344 -3.868463186604569 -5.8138649309322235 0 0 0
1058 209 2 0.5564 1.0378236073135843 -8.04597888346146 -5.591151759993416 0 0 0
530 33 2 0.5564 -0.15052449895646816 -10.694010951674713 -7.047577721222705 0 0 0
969 179 2 0.5564 -2.153708965416605 -8.779741626044347 -6.716943642455942 0 0 0
531 33 2 0.5564 -0.5599098192952869 -10.045408723848238 -5.7423530453330045 0 0 0
551 40 2 0.5564 -0.6451723985843265 -5.187096983305304 -6.603793926760227 0 0 0
968 179 2 0.5564 -1.934855375464819 -7.286932344048391 -6.59236161099148 0 0 0
967 179 1 -1.1128 -2.6240001419421315 -7.9483888590889675 -6.654226589776316 0 0 0
529 33 1 -1.1128 -0.8853693832460551 -10.256746789197297 -6.617375146904123 0 0 0
550 40 1 -1.1128 -0.7684568118374354 -6.119346881975843 -6.42504559556772 0 0 0
1059 209 2 0.5564 2.0222345070828642 -7.100261281161799 -6.2457167423731335 0 0 0
1057 209 1 -1.1128 1.4835591937472115 -7.872049008071442 -6.42017424089966 0 0 0
890 153 2 0.5564 1.8390693252068337 -4.5637089381847185 -6.742636199390132 0 0 0
552 40 2 0.5564 -0.10012453118697574 -6.555464176124408 -6.953629832507638 0 0 0
295 0 5 0 -0.7629288009731944 -3.957034699375632 -8.892328461145908 0 0 0
891 153 2 0.5564 0.9324850394009315 -3.39769101281647 -7.074920463093957 0 0 0
102 0 5 0 -2.814986737363065 -6.086594547198219 -8.950982287791286 0 0 0
104 0 5 0 1.3035905720009038 -5.9780787180371 -8.993493005885055 0 0 0
103 0 5 0 -0.7975346360433289 -8.144170099564969 -8.996610251331042 0 0 0
90 0 5 0 -2.8464603553682473 -10.040809878599372 -9.033972166278469 0 0 0
92 0 5 0 1.3545350764103956 -10.003830534894002 -9.089548688937342 0 0 0
63 0 5 0 1.2403686328696635 -7.997497905560097 -11.081529906135492 0 0 0
34 0 5 0 -2.8004028964172996 -10.075842751238959 -13.029470378725783 0 0 0
227 0 5 0 -2.714075941993181 -3.9309973764209407 -10.96333113967671 0 0 0
231 0 5 0 1.2942694745387473 -3.8916495329281147 -10.947102110488657 0 0 0
40 0 5 0 -0.6517342620935331 -10.123877891981367 -11.034906208955785 0 0 0
296 0 5 0 1.2567648364787536 -1.908742278464792 -8.886446063225188 0 0 0
886 152 1 -1.1128 -1.0964121984993829 -1.64306031573386 -6.287450509061614 0 0 0
888 152 2 0.5564 -0.2524602095089589 -1.198961952626241 -6.36991029395726 0 0 0
38 0 5 0 1.2808073960305597 -10.056849767661548 -13.113886341237107 0 0 0
58 0 5 0 -2.7331940100935346 -5.972662566209516 -12.895606709178516 0 0 0
230 0 5 0 1.225009703137803 -1.8578167179588774 -12.937874413009894 0 0 0
61 0 5 0 -0.7728697108461036 -7.9852780610434975 -12.969128292817132 0 0 0
226 0 5 0 -2.788901652108798 -1.8431765659898987 -13.044344266765185 0 0 0
229 0 5 0 -0.7774367262247766 -3.939945593172175 -13.005852619124147 0 0 0
65 0 5 0 3.2825101470463927 -7.88613259093563 -13.100482133599359 0 0 0
297 0 5 0 3.3423685530497744 -3.9657925240887626 -8.949660314340411 0 0 0
233 0 5 0 3.282969320905381 -3.844261801616024 -13.03249484751227 0 0 0
236 0 5 0 3.2990068048760763 -1.9384911827865174 -10.990188222466088 0 0 0
44 0 5 0 3.263383872279724 -10.021287134083153 -11.144140856255678 0 0 0
68 0 5 0 3.249725020916932 -5.918489144220367 -11.047636136845124 0 0 0
472 14 1 -1.1128 3.405389080651882 -9.740112466638006 -6.470356415268979 0 0 0
105 0 5 0 3.198255029406223 -7.994594606368839 -9.065458258637358 0 0 0
490 20 1 -1.1128 3.460305530931946 -2.0860384556470972 -6.497151375202922 0 0 0
487 19 1 -1.1128 3.5334128497821475 -5.81225748587317 -6.421273635738862 0 0 0
491 20 2 0.5564 2.7357197852715065 -1.81038444040551 -5.9357394683419225 0 0 0
666 78 2 0.5564 3.9456729304446094 -4.765441068513888 -3.8629782280392506 1 -1 0
474 14 2 0.5564 2.6700705866895627 -9.143169292506434 -6.608773112395253 0 0 0
609 59 2 0.5564 3.556386491428968 -7.161341862116177 -4.15709470837003 2 0 0
607 59 1 -1.1128 3.723003924330307 -7.992914157978985 -3.7133049284850856 2 0 0
1301 290 2 0.5564 2.925927504128629 -10.666645064384731 -5.0211471155111305 2 0 0
667 79 1 -1.1128 2.192664165623853 -10.242051926257606 -1.5442411791228376 2 0 0
669 79 2 0.5564 1.955774446220478 -9.65980813826488 -0.8223719786478912 2 0 0
661 77 1 -1.1128 4.245296970631356 -4.755064810169025 -0.2769558425480042 3 0 0
1224 264 2 0.5564 4.867465515933274 -3.553201564985794 -1.4225882320477194 3 0 0
922 164 1 -1.1128 1.6940820286661442 -2.767440249819295 -4.240109164228993 0 0 0
1390 320 1 -1.1128 -2.127244425479148 -1.68332938447224 -0.3624184702261347 3 0 0
759 109 2 0.5564 -11.316801891522887 -5.037319336071375 -1.0754469259017634 3 -1 0
492 20 2 0.5564 3.909424033997579 -2.7648426460905813 -5.993391065955555 0 0 0
1021 197 1 -1.1128 -2.975849552252087 -10.568647687294177 -4.275540679907864 2 1 0
1254 274 2 0.5564 -0.9579727232088519 -11.114493100151064 -1.6661142906147688 2 1 0
1214 261 2 0.5564 -7.773555928165855 -12.107016686557103 -0.7922368007440624 3 1 0
1123 231 1 -1.1128 -2.1255685069230443 -1.4770967599335487 -3.276932603403903 3 0 0
746 105 2 0.5564 7.48300320726348 -1.117350827337401 -0.8239293806260829 3 -1 0
473 14 2 0.5564 3.291806086779257 -10.419093984035785 -7.135419483001286 0 0 0
29 0 5 0 -8.794679992026117 -11.96705070452694 -13.134680390739344 0 0 0
96 0 5 0 9.252756025740915 -10.038596922651227 -9.192525750368377 0 0 0
1252 274 1 -1.1128 -0.7316138050362996 -11.005460395818853 -2.5897447338293307 2 1 0
902 157 2 0.5564 -3.78882758741636 -0.36346678793235293 -6.679289444495355 0 0 0
989 186 2 0.5564 0.9600637428690745 -1.6712234157884045 -0.9812683941202229 3 0 0
1094 221 2 0.5564 -5.1624884903734936 -11.713774675434266 -2.967327127032314 2 1 0
1253 274 2 0.5564 -1.5510834853395228 -10.741700653508644 -3.0081805828460855 2 1 0
1054 208 1 -1.1128 9.054965842778646 -5.84178316219859 -4.531489727734309 2 0 0
791 120 2 0.5564 -9.737301409103482 -11.929095453228614 -3.424364160680674 3 0 0
33 0 5 0 -4.825734872310358 -12.049281311912791 -13.057383375669025 0 0 0
597 55 2 0.5564 -11.544862732680102 -2.8279788467904208 -0.6781090337809907 3 -1 0
990 186 2 0.5564 0.8452460248943711 -3.1807033968233234 -0.967630097451966 3 0 0
892 154 1 -1.1128 10.120404031952498 -0.6558623424366109 -3.7635041631416644 2 0 0
595 55 1 -1.1128 -11.630839599959126 -1.8772243480853916 -0.6080351847530067 3 -1 0
961 177 1 -1.1128 11.364280774117407 -5.947694315160794 -6.830752714459987 -1 0 0
720 96 2 0.5564 -4.840706025515964 -11.22247801652032 -0.895643406749431 3 0 0
459 9 2 0.5564 11.92683883597744 -9.129342083364326 -5.897706759654288 -1 0 0
478 16 1 -1.1128 -6.648736388810987 -12.006616017355897 -6.599331877557618 0 0 0
1023 197 2 0.5564 -3.052617339809259 -11.014301211163865 -5.11918005583254 2 1 0
1022 197 2 0.5564 -3.5421365035631176 -11.068531833402988 -3.6876344924185074 2 1 0
1056 208 2 0.5564 8.410418769909406 -6.546909919596158 -4.591078330853931 2 0 0
1068 212 2 0.5564 6.843982106333349 -1.3521527109056937 -4.639474348225622 1 0 0
962 177 2 0.5564 11.994824702633025 -6.5430811645409115 -6.425539270376403 -1 0 0
1477 0 4 -1.1 5.500725113005174 -4.101666707932222 -4.986319129661423 0 0 0
1055 208 2 0.5564 9.896783820535527 -6.273087303625149 -4.678450384273315 2 0 0
289 0 5 0 11.27517083348208 -3.9365930680689565 -9.110321438046803 -1 0 0
433 1 1 -1.1128 9.320899647181765 -8.100634843872918 -6.894157453086196 -1 0 0
49 0 5 0 11.311867904327125 -7.963670707738593 -13.211345950073461 -1 0 0
1044 204 2 0.5564 6.422768925722172 -6.628813015228169 -2.8189518115346086 1 0 0
1042 204 1 -1.1128 6.113572141336543 -5.849830785431848 -2.3565319085498846 1 0 0
1024 198 1 -1.1128 -12.039837903531522 -10.34618445336854 -2.8590893958325965 2 1 0
106 0 5 0 5.3713471416841445 -5.944461152713093 -9.063292040669813 0 0 0
1222 264 1 -1.1128 5.2023651294406745 -2.9391688132200446 -2.0760512940259885 3 0 0
1066 212 1 -1.1128 6.462271444129939 -0.5146100826423107 -4.3766607617121025 1 0 0
984 184 2 0.5564 -11.952557815134575 -1.114303123979005 -6.352478582494943 0 0 0
468 12 2 0.5564 4.751336579213443 -8.674553832024534 -6.41999284067411 0 0 0
576 48 2 0.5564 9.168531804799144 -2.2288798078836076 -3.3623376073771976 1 -1 0
1223 264 2 0.5564 5.301942782124415 -3.464375426615728 -2.870078904352987 3 0 0
72 0 5 0 7.313581186639412 -5.958364985631218 -11.152293712009511 0 0 0
796 122 1 -1.1128 11.021550599913848 -7.7878395824178615 -3.960580475637279 2 0 0
913 161 1 -1.1128 7.418610151066668 -1.975615931264729 -6.4933470114556044 0 0 0
71 0 5 0 9.263495145435376 -8.001463546545073 -11.145126823835817 0 0 0
234 0 5 0 5.300091422607757 -1.8386175567803018 -13.078120616496532 0 0 0
299 0 5 0 7.418480253859762 -3.9641500610476967 -8.962941799550405 0 0 0
70 0 5 0 9.359719971743488 -5.9492391010025 -13.078034276716688 0 0 0
1017 195 2 0.5564 4.461735329600885 -0.5820480354036691 -6.574987722790935 0 0 0
1105 225 1 -1.1128 7.189579363495376 -7.832026278653923 -0.6968163864675819 2 0 0
300 0 5 0 9.401510200466058 -1.883197681782719 -8.963957669150245 0 0 0
1026 198 2 0.5564 -11.35027386366956 -10.740734076244449 -3.3930410612274495 2 1 0
1115 228 2 0.5564 4.532028449421959 -8.943754493214147 -2.411790462631661 2 0 0
1114 228 1 -1.1128 4.967084699446618 -9.494404544230582 -1.7608530501532162 2 0 0
1043 204 2 0.5564 5.568301175685657 -5.391719650618728 -2.996071900514236 1 0 0
1025 198 2 0.5564 -11.584800595884083 -9.700637488323288 -2.3182885203003885 2 1 0
982 184 1 -1.1128 11.828236032157939 -1.772366310253988 -5.830613261621211 -1 0 0
239 0 5 0 9.326543739500462 -3.9557673584567437 -11.068120879623095 0 0 0
66 0 5 0 5.209340583552918 -5.879849833721288 -13.018761229582324 0 0 0
575 48 2 0.5564 8.486470659954678 -3.450547838016964 -2.7842200565679383 1 -1 0
963 177 2 0.5564 10.684934361558533 -6.521911275006841 -7.184248167579247 -1 0 0
519 29 2 0.5564 10.19015158497381 -11.087417776328971 -6.45451151175336 -1 0 0
747 105 2 0.5564 6.436417203608002 -2.160950122317333 -1.1517320496527113 3 -1 0
1116 228 2 0.5564 5.723808295800061 -9.857615270560252 -2.22097840237051 2 0 0
488 19 2 0.5564 4.077084682279408 -6.507359603592925 -6.792103782754597 0 0 0
37 0 5 0 -0.7512596225391913 -12.096474543758921 -13.011768768322321 0 0 0
745 105 1 -1.1128 7.033198634829144 -1.8791616143254113 -0.4584462358663023 3 -1 0
467 12 2 0.5564 6.265046026444042 -8.659502198768962 -6.438763611499364 0 0 0
1106 225 2 0.5564 7.983711041984807 -7.546786541607917 -1.1487744145398124 2 0 0
1229 266 2 0.5564 10.108763636846781 -7.097068730957809 -2.363147027571297 3 0 0
471 13 2 0.5564 6.670578912413595 -6.829650565230733 -6.8784739382162 0 0 0
48 0 5 0 7.190281960441251 -10.06567949786647 -11.179604061612933 0 0 0
52 0 5 0 11.294909348814313 -5.9974944386351545 -11.066739386408504 -1 0 0
235 0 5 0 5.299830151605122 -3.8945320191450175 -10.997989956409093 0 0 0
494 21 2 0.5564 10.438546748354453 -4.254279828922027 -6.766343951798891 0 0 0
489 19 2 0.5564 4.159780818162999 -5.177439967343569 -6.073514603294482 0 0 0
94 0 5 0 5.200447961278198 -9.920320973104708 -9.05832345541861 0 0 0
476 15 2 0.5564 8.238559763866132 -10.314888082408029 -6.924417566471945 -1 0 0
1107 225 2 0.5564 6.50477932054699 -7.248501912038266 -1.0235379085319538 2 0 0
1238 269 2 0.5564 7.5571522266227005 -11.243212178228578 -1.6196764878033314 2 1 0
28 0 5 0 11.363243559177494 -10.024005346043834 -11.225851351535907 -1 0 0
97 0 5 0 11.259181021347686 -8.057992891382 -9.214892675666315 -1 0 0
894 154 2 0.5564 9.512807927982188 -0.38305159723252463 -4.450959572548854 2 0 0
95 0 5 0 7.282923453527138 -11.976264440143682 -9.171620063045802 0 0 0
477 15 2 0.5564 7.555466155472045 -10.149772115040195 -5.583517856715349 -1 0 0
240 0 5 0 7.317930879721971 -1.8889129582980697 -11.010026575183552 0 0 0
1237 269 1 -1.1128 7.307247835137913 -11.362910642723767 -0.7034543310743236 2 1 0
220 0 5 0 11.378210101699773 -1.9132012157333855 -11.020832309526417 -1 0 0
42 0 5 0 5.29039430407404 -10.038711102328092 -13.188153160761681 0 0 0
69 0 5 0 7.204098639390488 -7.910162327614772 -13.165379810100367 0 0 0
819 129 2 0.5564 -12.02058602101253 -3.6401462736827197 -3.7950298610061997 2 0 0
46 0 5 0 9.216590338002309 -9.93147196307797 -13.135527901179275 0 0 0
464 11 2 0.5564 6.090474957425371 -11.185524985535434 -6.845047262212142 0 0 0
1198 256 1 -1.1128 7.237825393894141 -7.796513907653425 -3.998007037033168 1 0 0
493 21 1 -1.1128 9.9515522013681 -3.533044660352507 -6.3677032255076655 0 0 0
797 122 2 0.5564 11.793330555982228 -7.3901480986188375 -3.5575033878490396 2 0 0
238 0 5 0 9.224339689221802 -1.8677601073120151 -13.029243255795615 0 0 0
298 0 5 0 5.382988090008669 -1.896065393118141 -9.007127197535464 0 0 0
108 0 5 0 9.310150160708398 -6.027881237831587 -9.069574562650383 0 0 0
1488 0 4 -1.1 7.127653784405646 -10.818671144373532 -3.568319303792643 1 1 0
435 1 2 0.5564 10.05227474585848 -8.716314264939554 -6.9421305402697255 -1 0 0
1200 256 2 0.5564 7.418836506755175 -8.678586275124461 -3.673317131825556 1 0 0
475 15 1 -1.1128 7.490854488553535 -9.891206295020348 -6.5028679944989625 -1 0 0
1067 212 2 0.5564 5.567190665190871 -0.7303613187523432 -4.1150008360741595 1 0 0
457 9 1 -1.1128 11.557612893145192 -9.816562174986316 -6.452373150891892 -1 0 0
495 21 2 0.5564 10.606531212084674 -2.848870946960115 -6.2292178845744814 0 0 0
817 129 1 -1.1128 11.626893859699994 -4.389020340809227 -3.861178282907767 1 0 0
1199 256 2 0.5564 6.468381431544405 -7.9000486647301535 -4.55785291158929 1 0 0
983 184 2 0.5564 11.75020498024551 -1.3780620022835655 -4.961899537599443 -1 0 0
67 0 5 0 5.237118452668617 -7.9424962146789415 -11.075618187328304 0 0 0
1144 238 1 -1.1128 8.220031821913263 -4.240288041274473 -1.3111251281818308 2 0 0
1146 238 2 0.5564 7.946781076575657 -3.354839910712529 -1.0712663580639765 2 0 0
237 0 5 0 7.2478737743115085 -3.8720014683272983 -12.970925478810896 0 0 0
466 12 1 -1.1128 5.500858683205783 -8.096086049149156 -6.560640324198697 0 0 0
1145 238 2 0.5564 7.447502876681065 -4.626356952809467 -1.723852520699632 2 0 0
574 48 1 -1.1128 8.507510585491286 -2.8920078008113217 -3.5612804944233716 1 -1 0
469 13 1 -1.1128 7.292390704356276 -6.109651968218397 -6.772889165977619 0 0 0
434 1 2 0.5564 8.584422600794149 -8.62667636198299 -6.582589845602043 -1 0 0
107 0 5 0 7.217504393984877 -8.001341616473816 -9.162684656026581 0 0 0
915 161 2 0.5564 6.795907843342547 -1.9472593261938003 -7.219731058138588 0 0 0
818 129 2 0.5564 10.913007509421629 -4.081593694268287 -4.419788829941517 1 0 0
914 161 2 0.5564 8.000392399814261 -1.231132140209119 -6.64677661669264 0 0 0
470 13 2 0.5564 8.144846198898945 -6.497912225357756 -6.970001878608529 0 0 0
798 122 2 0.5564 11.106444745615608 -8.722243149881752 -3.7710548089318947 2 0 0
1462 0 3 1.1 7.830842496264837 -4.169037267975941 -5.5558857764949385 0 0 0
217 0 5 0 11.320226208985527 -3.864810030343133 -12.993073499446343 -1 0 0
899 156 2 0.5564 -7.806345513082862 -0.7027699370083317 -6.099672858161443 0 0 0
45 0 5 0 7.340451141734442 -12.04041938380683 -13.091782964185596 0 0 0
517 29 1 -1.1128 9.594252989834786 -11.789150945559074 -6.716696626420525 -1 0 0
939 169 2 0.5564 -7.224747574471053 -0.3365203681438855 -3.1743686787670704 3 0 0
673 81 1 -1.1128 10.888141191014254 -11.99138567885824 -1.1866109602466886 2 0 0
93 0 5 0 3.2289810421658958 -12.118455166664424 -9.060341313465004 0 0 0
1165 245 1 -1.1128 1.541655059366296 -0.2216738651816199 -0.09661998517177757 3 0 0