ITEM: TIMESTEP
100000
ITEM: NUMBER OF ATOMS
2580
ITEM: BOX BOUNDS pp pp pp
-15.2604      15.2604
-1.5260439857356371e+01 1.5260439857356371e+01
-1.5260439857356371e+01 1.5260439857356371e+01
ITEM: ATOMS id type xs ys zs
1357	4	0.092503	0.15474	0.032013	
1362	4	0.071936	0.11736	0.049783	
2202	2	0.18348	0.18146	0.17655	
1914	2	0.1543	0.11167	0.17113	
1912	1	0.18268	0.11851	0.1826	
963	4	0.12462	0.0086141	0.2006	
2418	2	0.21922	0.16612	0.24504	
962	4	0.10666	0.032208	0.16646	
2246	2	0.24477	0.034555	0.19728	
2245	1	0.23359	0.033636	0.16799	
1363	3	0.081301	0.10392	0.08201	
961	3	0.087336	0.062389	0.17222	
2247	2	0.21015	0.012841	0.16917	
1913	2	0.20033	0.093651	0.17525	
1358	5	0.13222	0.17139	0.056981	
1359	3	0.15087	0.14266	0.065473	
964	3	0.11348	0.013338	0.23348	
1360	3	0.15288	0.19174	0.036342	
1361	3	0.12427	0.18612	0.087202	
2020	1	0.23053	0.13047	0.034902	
1364	4	0.040305	0.095596	0.024817	
1365	3	0.029904	0.061894	0.03428	
439	3	0.012355	0.19205	0.13694	
1561	1	0.098322	0.22531	0.19706	
1563	2	0.12891	0.21937	0.19351	
2235	2	0.079511	0.16486	0.20609	
1562	2	0.096966	0.2456	0.22093	
2201	2	0.19966	0.22402	0.19622	
2200	1	0.17976	0.21255	0.17487	
1446	3	0.18596	0.0088401	0.0093907	
2021	2	0.24492	0.13288	0.062663	
2022	2	0.23095	0.15959	0.023272	
1554	3	0.010631	0.02046	0.21484	
975	3	0.094841	0.03158	0.10061	
2233	1	0.078972	0.13585	0.21798	
2234	2	0.085259	0.13972	0.24846	
974	4	0.11177	0.016347	0.12552	
2083	1	0.23489	0.21687	0.0060685	
2035	1	0.25672	0.038703	0.24932	
2547	2	0.28206	0.028512	0.12286	
1943	2	0.43702	0.22043	0.030868	
2564	2	0.28293	0.086915	0.21198	
2240	2	0.3458	0.13319	0.059764	
2179	1	0.39719	0.18807	0.14424	
1810	1	0.27215	0.14364	0.112	
2181	2	0.37964	0.21249	0.15313	
2132	2	0.41959	0.045178	0.060779	
2133	2	0.3991	0.089683	0.068524	
1812	2	0.2758	0.17326	0.12165	
1811	2	0.28166	0.12623	0.13628	
2239	1	0.37196	0.14945	0.065661	
2496	2	0.31975	0.069859	0.060997	
2241	2	0.37029	0.15622	0.096239	
2565	2	0.32715	0.095128	0.19107	
2563	1	0.3018	0.10993	0.20211	
2186	2	0.40027	0.12376	0.16159	
1954	1	0.49267	0.20929	0.12783	
2131	1	0.4045	0.062103	0.082446	
2180	2	0.42631	0.19956	0.14241	
2187	2	0.39767	0.078909	0.14056	
2185	1	0.39177	0.094119	0.16734	
2478	2	0.41988	0.081111	0.2247	
2119	1	0.48355	0.1702	0.21407	
2152	1	0.28687	0.23277	0.14034	
2003	2	0.31541	0.15746	0.23823	
2545	1	0.30998	0.029981	0.10866	
1886	2	0.45878	0.2167	0.22614	
2546	2	0.32645	0.0064523	0.12125	
1942	1	0.43936	0.19239	0.016999	
1944	2	0.4146	0.1763	0.027577	
2121	2	0.46498	0.14885	0.2276	
2004	2	0.32827	0.20525	0.23493	
945	3	0.49327	0.057079	0.095132	
1998	2	0.49175	0.17005	0.041285	
2085	2	0.26531	0.21905	0.013348	
1814	2	0.33961	0.18614	0.033767	
2494	1	0.31718	0.083683	0.032964	
2495	2	0.28633	0.084388	0.027343	
1643	2	0.46092	0.24515	0.10014	
2153	2	0.26002	0.24818	0.14537	
1813	1	0.32307	0.20573	0.015707	
1885	1	0.44775	0.24603	0.2248	
64	3	0.45619	0.014881	0.0026865	
1955	2	0.50365	0.19897	0.15534	
944	4	0.51005	0.03245	0.11435	
1956	2	0.51593	0.20379	0.10752	
1996	1	0.5225	0.17146	0.047272	
1997	2	0.53616	0.16347	0.020195	
268	3	0.72033	0.084507	0.23494	
1737	2	0.60533	0.22115	0.14708	
1190	4	0.64804	0.066279	0.050774	
2221	1	0.60996	0.17154	0.096361	
2222	2	0.58714	0.15628	0.081192	
2223	2	0.6264	0.18565	0.073688	
1191	3	0.62607	0.063578	0.081232	
14	4	0.7183	0.21511	0.15583	
265	3	0.7054	0.10181	0.13917	
262	4	0.66671	0.073437	0.19219	
1735	1	0.59164	0.23393	0.17223	
15	3	0.69352	0.20387	0.13402	
263	5	0.69975	0.07039	0.15708	
266	3	0.73001	0.065671	0.17329	
264	3	0.69114	0.047115	0.13398	
2041	1	0.66466	0.22129	0.037841	
1736	2	0.60674	0.22133	0.19666	
931	3	0.50339	0.07351	0.17469	
2043	2	0.64936	0.24864	0.036639	
261	3	0.61135	0.083046	0.15369	
260	4	0.62269	0.0784	0.18764	
1188	4	0.67617	0.10318	0.048392	
1189	3	0.67917	0.12632	0.076441	
2115	2	0.5236	0.22545	0.020779	
12	4	0.73138	0.19123	0.19364	
13	3	0.71687	0.1622	0.20511	
1187	4	0.69658	0.11013	0.0088882	
1194	3	0.57223	0.0071893	0.01261	
933	4	0.5265	0.0079478	0.1881	
267	4	0.68469	0.077745	0.23336	
2120	2	0.50957	0.17022	0.23159	
1940	2	0.62912	0.15742	0.23464	
1939	1	0.62144	0.18568	0.24586	
259	3	0.56189	0.092762	0.22014	
258	4	0.59665	0.08566	0.22517	
932	4	0.51098	0.042712	0.15929	
934	3	0.53264	0.019408	0.22152	
2042	2	0.68851	0.22473	0.01776	
1192	4	0.63789	0.037541	0.017901	
1186	3	0.72736	0.13171	0.0075587	
441	3	0.98806	0.22186	0.06684	
1419	3	0.95014	0.19535	0.2326	
444	3	0.89244	0.20814	0.031248	
1236	3	0.83106	0.077435	0.048399	
7	4	0.76908	0.20499	0.2137	
1241	3	0.81953	0.11797	0.12032	
448	3	0.91081	0.10676	0.039824	
8	5	0.79302	0.17252	0.24179	
436	3	0.97676	0.11675	0.16123	
10	3	0.82887	0.16955	0.23125	
792	4	0.8638	0.061609	0.17781	
783	4	0.79239	0.019166	0.21276	
447	4	0.93502	0.12395	0.060979	
442	4	0.94797	0.16715	0.048824	
1239	3	0.7927	0.17071	0.11887	
1240	3	0.76453	0.12453	0.10051	
1238	5	0.7967	0.13957	0.10069	
785	4	0.81713	0.047044	0.23772	
440	4	0.97632	0.18904	0.076909	
1243	3	0.79397	0.21815	0.048605	
438	4	0.98991	0.17131	0.11749	
437	4	0.97374	0.1298	0.12794	
449	4	0.94773	0.10551	0.098655	
782	4	0.80232	0.012765	0.16956	
450	3	0.93291	0.075797	0.10867	
1421	3	0.89584	0.1748	0.22295	
1418	5	0.91552	0.20162	0.23267	
794	4	0.83779	0.034276	0.15152	
1242	4	0.80277	0.18625	0.030702	
1237	4	0.80907	0.14581	0.05324	
1235	4	0.82419	0.10816	0.031664	
787	4	0.85295	0.068672	0.22144	
793	3	0.8912	0.07691	0.16043	
795	3	0.84391	0.0356	0.11448	
443	5	0.92282	0.19518	0.015226	
1423	3	0.9064	0.21626	0.14497	
1422	4	0.90738	0.24516	0.16477	
5	4	0.79107	0.24357	0.19756	
909	3	0.98226	0.019628	0.12003	
1417	4	0.90805	0.24449	0.20978	
445	3	0.9439	0.22137	0.002749	
911	3	0.96906	0.018791	0.063066	
9	3	0.78035	0.14029	0.24037	
789	3	0.91835	0.099649	0.23406	
369	3	0.24119	0.47659	0.070122	
1623	2	0.078881	0.26574	0.15398	
1622	2	0.039511	0.29474	0.14564	
1621	1	0.066123	0.28465	0.13246	
372	4	0.17513	0.40684	0.098458	
1791	2	0.0064433	0.28829	0.21958	
1789	1	0.00064255	0.30074	0.19138	
1723	1	0.20174	0.4011	0.20494	
1725	2	0.18024	0.40131	0.1821	
361	3	0.09575	0.41478	0.17407	
362	4	0.11697	0.42451	0.14855	
1724	2	0.22408	0.3817	0.19452	
375	3	0.14051	0.36052	0.13781	
374	4	0.14309	0.39411	0.12945	
373	3	0.18635	0.38125	0.078987	
367	4	0.18196	0.45092	0.088504	
1796	2	0.079071	0.31278	0.078482	
1758	2	0.18768	0.27397	0.13417	
1795	1	0.078563	0.32246	0.048655	
1756	1	0.20823	0.29592	0.12526	
1757	2	0.20601	0.29653	0.093978	
2122	1	0.21102	0.29602	0.039491	
1797	2	0.049922	0.33465	0.04483	
1479	3	0.037487	0.44033	0.090574	
363	4	0.12158	0.46788	0.14231	
1478	5	0.0055181	0.43378	0.10128	
365	4	0.15382	0.48213	0.11148	
2541	2	0.10905	0.29434	0.0006547	
315	3	0.041792	0.4708	0.18791	
1481	3	0.0022809	0.41802	0.13229	
314	4	0.031343	0.45646	0.2164	
368	5	0.21374	0.46166	0.052631	
370	3	0.2267	0.43119	0.036696	
364	3	0.10175	0.49082	0.16056	
2124	2	0.22443	0.27032	0.027519	
2123	2	0.23071	0.3193	0.032168	
371	3	0.20305	0.48579	0.029211	
313	3	0.0951	0.46363	0.24872	
1847	2	0.16966	0.36126	0.24007	
2344	1	0.23305	0.26435	0.24086	
1848	2	0.18222	0.31366	0.24612	
2540	2	0.15743	0.28374	0.0033595	
1344	3	0.17976	0.38195	0.0025349	
2154	2	0.30475	0.25309	0.12449	
2346	2	0.25886	0.28164	0.23659	
2082	2	0.25483	0.34159	0.14115	
2291	2	0.40926	0.42438	0.11884	
1644	2	0.45063	0.2871	0.075748	
1642	1	0.43873	0.25895	0.082791	
2080	1	0.26906	0.36496	0.15647	
2081	2	0.28988	0.3763	0.13594	
2292	2	0.42834	0.39289	0.085594	
2507	2	0.35243	0.31429	0.10158	
2506	1	0.35838	0.28502	0.11116	
2508	2	0.38642	0.27826	0.098851	
2290	1	0.40847	0.417	0.088365	
2015	2	0.35771	0.38728	0.081769	
2014	1	0.33478	0.36673	0.08772	
2016	2	0.31817	0.36556	0.061142	
232	4	0.43759	0.44866	0.2054	
237	4	0.39819	0.42956	0.19956	
238	3	0.37168	0.44932	0.18518	
2399	2	0.28674	0.34519	0.2141	
2398	1	0.29898	0.32959	0.23839	
240	3	0.36306	0.36882	0.20833	
239	4	0.39416	0.38561	0.20135	
230	4	0.47602	0.42598	0.2088	
2068	1	0.47271	0.34365	0.080658	
2400	2	0.31683	0.30737	0.22529	
1830	2	0.35836	0.27745	0.16834	
227	4	0.43293	0.36064	0.20301	
226	3	0.42929	0.32658	0.20008	
228	4	0.47395	0.37991	0.20685	
1828	1	0.35696	0.26563	0.19736	
1829	2	0.3858	0.26981	0.20895	
2070	2	0.47484	0.33559	0.050424	
2502	2	0.49521	0.26967	0.1906	
1371	3	0.45124	0.45721	0.032761	
1782	2	0.37755	0.30895	0.0050987	
1370	4	0.47457	0.48146	0.021748	
2005	1	0.27977	0.35762	0.0017224	
233	5	0.44258	0.497	0.20527	
1374	3	0.49181	0.44378	0.095854	
2238	2	0.71245	0.44205	0.0095634	
2236	1	0.69672	0.462	0.027944	
1168	3	0.66484	0.49288	0.16367	
2113	1	0.52384	0.25371	0.0071904	
1375	3	0.55078	0.44504	0.086597	
1372	4	0.5134	0.48795	0.046362	
1373	5	0.52143	0.46447	0.089832	
2	4	0.73918	0.25102	0.14095	
2069	2	0.50196	0.34084	0.091619	
231	3	0.50637	0.44154	0.21714	
1163	5	0.69755	0.48815	0.23904	
1	3	0.7294	0.26512	0.11044	
2253	2	0.58307	0.34867	0.1279	
2501	2	0.54396	0.26142	0.18667	
2252	2	0.54633	0.31625	0.13564	
2500	1	0.52285	0.28444	0.18953	
2251	1	0.55932	0.33417	0.11342	
1669	1	0.60114	0.29724	0.036692	
1671	2	0.59025	0.30352	0.065422	
1227	4	0.6122	0.38839	0.18541	
1229	4	0.60705	0.41714	0.14988	
1220	4	0.68346	0.36893	0.16133	
229	3	0.50491	0.36258	0.20631	
1218	4	0.67804	0.39696	0.12638	
1217	4	0.64093	0.42193	0.11991	
1219	3	0.70222	0.39852	0.10033	
1216	3	0.63716	0.44486	0.092089	
799	3	0.69327	0.31724	0.035049	
798	4	0.72077	0.32841	0.015241	
1221	3	0.71095	0.34487	0.15811	
1224	3	0.68267	0.30945	0.22565	
1222	4	0.64984	0.36182	0.18982	
1223	5	0.65644	0.33344	0.22962	
1230	3	0.57599	0.43609	0.15074	
1226	3	0.62442	0.31545	0.23508	
1228	3	0.58878	0.39163	0.21197	
1165	3	0.66399	0.47525	0.23782	
1166	3	0.72012	0.46244	0.23333	
2114	2	0.54873	0.2682	0.019611	
1670	2	0.59684	0.32385	0.020658	
1376	3	0.52263	0.48799	0.1168	
2237	2	0.71854	0.47398	0.047027	
804	3	0.87147	0.34309	0.010183	
1475	4	0.98756	0.42141	0.021235	
982	4	0.79212	0.48475	0.068325	
1101	3	0.91184	0.48239	0.22708	
1099	3	0.85955	0.49876	0.16675	
1790	2	0.97377	0.28739	0.18227	
1480	3	0.98334	0.46202	0.10612	
981	3	0.81896	0.47414	0.0068835	
803	5	0.84468	0.32158	0.020119	
990	3	0.80336	0.42607	0.1604	
1483	3	0.96944	0.34553	0.10246	
1477	4	0.98572	0.40675	0.063789	
302	4	0.98984	0.44035	0.21713	
987	4	0.78646	0.47342	0.11071	
3	4	0.77587	0.26695	0.16089	
4	3	0.78928	0.29794	0.14986	
1331	3	0.80428	0.34711	0.20232	
1330	3	0.76549	0.38677	0.22505	
979	3	0.87454	0.41612	0.038039	
6	3	0.81827	0.25889	0.21596	
1482	4	0.97053	0.36293	0.069729	
1485	3	0.96965	0.30068	0.041848	
978	4	0.84691	0.42963	0.056125	
1414	3	0.89301	0.35152	0.23274	
1484	4	0.96628	0.3364	0.034891	
1413	4	0.90046	0.32283	0.2113	
801	3	0.76876	0.29156	0.052945	
800	4	0.76257	0.31702	0.02829	
1411	3	0.9107	0.35577	0.15379	
1412	4	0.90174	0.32454	0.16676	
977	4	0.84041	0.41493	0.099079	
989	4	0.8098	0.43644	0.12709	
1424	4	0.90332	0.28635	0.1427	
1425	3	0.90664	0.28805	0.10716	
976	3	0.85586	0.38288	0.10959	
980	4	0.82091	0.46419	0.040234	
1415	4	0.90751	0.28234	0.23363	
304	3	0.94944	0.3964	0.24721	
301	3	0.96637	0.44097	0.18897	
805	3	0.84389	0.3141	0.053933	
988	3	0.77106	0.49913	0.13209	
1476	3	0.98488	0.45508	0.012317	
1329	3	0.75905	0.32912	0.23331	
1328	5	0.78424	0.35501	0.22977	
1333	3	0.83244	0.42326	0.24377	
802	4	0.79877	0.33047	0.0042368	
806	3	0.85488	0.2922	0.0064243	
2036	2	0.23232	0.049937	0.26551	
2416	1	0.20803	0.15394	0.27169	
1818	2	0.22077	0.016629	0.42943	
2286	2	0.078523	0.064964	0.48563	
2548	1	0.080899	0.02578	0.39328	
2191	1	0.22912	0.11004	0.49214	
2092	1	0.17128	0.22644	0.46268	
2093	2	0.1661	0.19556	0.46089	
2140	1	0.14957	0.14041	0.45835	
2141	2	0.17754	0.12732	0.46379	
2417	2	0.19787	0.12539	0.26363	
2206	1	0.18177	0.072554	0.29825	
1599	2	0.12076	0.16636	0.40661	
1597	1	0.10823	0.18139	0.38211	
2208	2	0.1886	0.069044	0.32865	
1598	2	0.099592	0.20928	0.39358	
2207	2	0.15048	0.074592	0.29741	
2142	2	0.12886	0.11955	0.46928	
2542	1	0.10123	0.088826	0.33317	
2544	2	0.099407	0.11224	0.35395	
2411	2	0.1619	0.18423	0.28919	
2410	1	0.1385	0.20347	0.29728	
2543	2	0.087568	0.064507	0.3475	
2285	2	0.050436	0.092198	0.45513	
2421	2	0.23979	0.23769	0.4173	
2173	1	0.010049	0.21324	0.43032	
2284	1	0.080023	0.088371	0.46481	
1555	3	0.041756	0.019853	0.26406	
1901	2	0.054216	0.19729	0.34105	
2412	2	0.12942	0.19335	0.32554	
2550	2	0.084008	0.045696	0.41731	
1711	1	0.23055	0.061917	0.37763	
2192	2	0.24259	0.11824	0.46504	
1713	2	0.24093	0.088166	0.3913	
1902	2	0.019406	0.20608	0.37528	
1934	2	0.11761	0.24765	0.44123	
2174	2	0.033238	0.23378	0.43521	
1900	1	0.024048	0.20523	0.34427	
1751	2	0.0062138	0.15354	0.3138	
1817	2	0.2287	0.0052893	0.47706	
2094	2	0.1678	0.23325	0.49309	
2475	2	0.00061325	0.038201	0.46036	
2037	2	0.27888	0.033724	0.27095	
2476	1	0.43527	0.086973	0.25139	
2002	1	0.33347	0.17927	0.2517	
2137	1	0.32334	0.047573	0.47712	
2138	2	0.31944	0.031916	0.45022	
2419	1	0.26627	0.22313	0.42568	
651	3	0.38912	0.0047211	0.36788	
1712	2	0.2557	0.050197	0.36301	
2258	2	0.25027	0.1705	0.32638	
2420	2	0.2684	0.22787	0.45661	
1918	1	0.26777	0.13254	0.41802	
1919	2	0.26583	0.16384	0.41873	
2257	1	0.2788	0.18259	0.33127	
2288	2	0.41501	0.13775	0.28112	
2287	1	0.40985	0.16432	0.29695	
2477	2	0.43132	0.061053	0.2686	
2139	2	0.33192	0.076407	0.46825	
1714	1	0.30769	0.028092	0.33743	
2289	2	0.38321	0.17563	0.28487	
2259	2	0.29335	0.17981	0.30362	
1920	2	0.29672	0.12622	0.42827	
1803	2	0.35989	0.13056	0.33111	
1801	1	0.3389	0.11154	0.34459	
1802	2	0.31306	0.12909	0.34738	
2556	2	0.32139	0.23619	0.38604	
1716	2	0.32348	0.054934	0.34113	
2570	2	0.36918	0.14456	0.43975	
2569	1	0.35586	0.1166	0.43479	
2503	1	0.40696	0.19888	0.44765	
2029	1	0.44528	0.19482	0.37049	
2571	2	0.35253	0.11489	0.40365	
2505	2	0.42825	0.20362	0.42512	
2504	2	0.41021	0.22348	0.46684	
2031	2	0.4351	0.17429	0.34908	
2554	1	0.35115	0.24612	0.38612	
2555	2	0.36608	0.22603	0.40501	
650	4	0.42413	0.0081829	0.35914	
2030	2	0.44396	0.2226	0.356	
655	3	0.41191	0.048267	0.43323	
653	5	0.44344	0.060359	0.41974	
654	3	0.4399	0.095236	0.42415	
652	4	0.45151	0.040901	0.37429	
2576	2	0.2682	0.2384	0.33361	
656	3	0.47241	0.050835	0.43933	
657	4	0.48763	0.050183	0.34844	
1715	2	0.31768	0.009802	0.36087	
2521	1	0.73009	0.11981	0.48874	
125	4	0.56139	0.024693	0.49835	
2280	2	0.73103	0.18207	0.48695	
660	3	0.53427	0.028312	0.29645	
123	4	0.57071	0.032315	0.45427	
1694	2	0.634	0.22195	0.46343	
2522	2	0.71048	0.10769	0.46748	
256	3	0.59444	0.086534	0.29442	
269	4	0.66043	0.081716	0.27162	
270	3	0.67587	0.078193	0.30333	
45	3	0.5088	0.20191	0.45543	
257	4	0.61543	0.087437	0.26579	
1695	2	0.68122	0.21292	0.45122	
2130	2	0.64871	0.088794	0.40401	
2128	1	0.67507	0.074355	0.41298	
2414	2	0.71099	0.15325	0.31926	
2415	2	0.66528	0.16699	0.33275	
1664	2	0.59745	0.15164	0.37866	
2129	2	0.66824	0.04379	0.41134	
1663	1	0.62856	0.14771	0.37896	
658	3	0.51261	0.069891	0.36477	
2033	2	0.71288	0.096366	0.3703	
1665	2	0.63865	0.16657	0.4019	
2413	1	0.68736	0.17217	0.31108	
1766	2	0.54092	0.17158	0.34073	
1765	1	0.53239	0.16031	0.36872	
1767	2	0.50377	0.17216	0.37358	
1941	2	0.64218	0.19094	0.26878	
1659	2	0.71429	0.23436	0.30452	
2389	1	0.54023	0.19233	0.28235	
2390	2	0.56975	0.18982	0.27205	
2032	1	0.73614	0.106	0.35159	
124	3	0.56247	0.062104	0.43594	
1693	1	0.65191	0.21065	0.44029	
44	4	0.52233	0.22689	0.47556	
2391	2	0.53694	0.2227	0.28945	
2278	1	0.73655	0.2089	0.47169	
659	4	0.50292	0.025279	0.31288	
121	3	0.58524	0.0057684	0.39027	
2279	2	0.74662	0.22864	0.49388	
2270	2	0.88155	0.066636	0.49663	
786	3	0.80945	0.051374	0.27386	
11	3	0.79103	0.18418	0.2738	
2269	1	0.86988	0.04022	0.4844	
2271	2	0.88683	0.035406	0.45845	
1566	2	0.92044	0.0025793	0.38651	
1420	3	0.90687	0.20184	0.26749	
2175	2	0.99997	0.20578	0.45907	
1752	2	0.98782	0.12359	0.27881	
2473	1	0.99261	0.065699	0.44758	
1565	2	0.91801	0.051804	0.38091	
1911	2	0.76544	0.057078	0.46609	
1909	1	0.78379	0.032318	0.46027	
791	3	0.89477	0.069943	0.27935	
1626	2	0.81266	0.20404	0.38432	
1750	1	0.98047	0.13745	0.30596	
2474	2	0.97104	0.058368	0.42602	
1861	1	0.79115	0.15401	0.4116	
1862	2	0.77137	0.1413	0.39084	
1863	2	0.77263	0.16498	0.43441	
788	5	0.88577	0.091649	0.25103	
790	3	0.87095	0.11947	0.26517	
2034	2	0.75993	0.086595	0.35801	
1989	2	0.83222	0.061264	0.39053	
1987	1	0.81904	0.064446	0.36224	
1988	2	0.84257	0.073508	0.34358	
1682	2	0.88861	0.14452	0.45058	
1681	1	0.87986	0.15817	0.42373	
1683	2	0.84854	0.1566	0.42396	
2047	1	0.90097	0.10247	0.3512	
2049	2	0.92437	0.11839	0.33768	
2048	2	0.89131	0.12103	0.37456	
2574	2	0.91243	0.18699	0.3794	
2573	2	0.95322	0.19362	0.35196	
2572	1	0.92436	0.20497	0.35663	
1854	2	0.94041	0.2372	0.48268	
1438	3	0.77206	0.0012617	0.33892	
1624	1	0.82755	0.22897	0.37246	
1625	2	0.85736	0.21967	0.36955	
1564	1	0.91877	0.02934	0.40278	
1910	2	0.81201	0.040743	0.47105	
2529	2	0.99269	0.099106	0.49403	
312	4	0.060765	0.45309	0.25118	
2386	1	0.030146	0.48532	0.4427	
2388	2	0.043115	0.48086	0.47091	
1696	1	0.011424	0.31883	0.47388	
2368	1	0.10234	0.3905	0.47135	
1893	2	0.20895	0.42614	0.47699	
1933	1	0.092451	0.26126	0.42836	
311	3	0.080874	0.42733	0.35051	
2370	2	0.12466	0.41094	0.46312	
310	3	0.10791	0.40661	0.30073	
2345	2	0.23551	0.25367	0.27024	
1846	1	0.16281	0.33576	0.25699	
307	4	0.04588	0.43122	0.28781	
1935	2	0.10373	0.2869	0.41426	
309	3	0.06807	0.37556	0.32746	
308	5	0.076387	0.40927	0.31899	
2090	2	0.11579	0.30693	0.27589	
1965	2	0.18567	0.33597	0.3173	
2091	2	0.1163	0.26001	0.29197	
2089	1	0.097268	0.28199	0.28021	
2078	2	0.1086	0.36181	0.40795	
2079	2	0.13136	0.34258	0.36829	
2077	1	0.10808	0.33714	0.38858	
2432	2	0.048359	0.32815	0.38211	
1698	2	0.011349	0.31912	0.44252	
1963	1	0.19672	0.33494	0.34663	
1964	2	0.21443	0.30907	0.34747	
2484	2	0.23891	0.32002	0.45474	
1891	1	0.18491	0.42345	0.45704	
2309	2	0.22154	0.38778	0.36597	
1892	2	0.19834	0.42123	0.42879	
2433	2	0.0051697	0.31666	0.36059	
2431	1	0.01747	0.33313	0.38428	
2531	2	0.038925	0.29306	0.2976	
2530	1	0.0082805	0.28793	0.30188	
1578	2	0.0023659	0.43648	0.41932	
2532	2	0.0061432	0.25712	0.30733	
2308	1	0.23543	0.41295	0.37852	
1697	2	0.031519	0.34153	0.48191	
2310	2	0.24928	0.4272	0.35425	
305	4	0.0019655	0.41767	0.28894	
2343	2	0.045892	0.27769	0.49515	
1859	2	0.29361	0.36602	0.4453	
180	3	0.306	0.41485	0.26983	
1601	2	0.36919	0.26268	0.32454	
178	3	0.2508	0.47031	0.25183	
2482	1	0.2512	0.33071	0.48154	
1733	2	0.38555	0.28159	0.48298	
2575	1	0.25471	0.26638	0.32927	
168	4	0.32149	0.4778	0.35763	
177	4	0.27003	0.47291	0.2821	
1887	2	0.44024	0.25297	0.25445	
167	4	0.32577	0.44305	0.32929	
166	3	0.35347	0.42056	0.33315	
2577	2	0.27802	0.28702	0.33307	
1466	3	0.45985	0.39515	0.33373	
1858	1	0.31069	0.38482	0.4269	
1872	2	0.30823	0.33413	0.29115	
1464	3	0.43804	0.44765	0.34387	
1463	5	0.46168	0.42947	0.32346	
2334	2	0.35558	0.33858	0.4379	
1860	2	0.29085	0.39393	0.40439	
1465	3	0.45374	0.4308	0.28717	
1602	2	0.41564	0.27974	0.3212	
179	4	0.30046	0.43995	0.29333	
1600	1	0.3902	0.27356	0.30395	
2332	1	0.37726	0.31607	0.43532	
2333	2	0.36645	0.29729	0.41265	
2157	2	0.47128	0.30661	0.36668	
1763	2	0.45934	0.37248	0.42447	
2155	1	0.47038	0.28577	0.34326	
1764	2	0.4253	0.33869	0.41183	
1870	1	0.31794	0.32698	0.3201	
1871	2	0.34697	0.31577	0.31611	
1762	1	0.45144	0.35261	0.40153	
169	3	0.33912	0.48193	0.38958	
2156	2	0.49627	0.29161	0.32655	
1922	2	0.2932	0.42899	0.48621	
2483	2	0.26888	0.30705	0.49208	
284	4	0.70892	0.48075	0.42635	
285	3	0.68631	0.49258	0.45105	
2210	2	0.73813	0.38191	0.4663	
1225	3	0.66509	0.35384	0.25801	
2209	1	0.72531	0.37686	0.49448	
1164	3	0.705	0.49813	0.27243	
1842	2	0.66607	0.36473	0.47357	
848	5	0.58297	0.47965	0.4447	
34	3	0.51865	0.34097	0.48031	
849	3	0.56834	0.45725	0.42196	
1456	3	0.62556	0.49277	0.30658	
1462	4	0.50741	0.4457	0.33043	
1467	4	0.51703	0.49121	0.33944	
33	4	0.52639	0.30639	0.48689	
278	5	0.7046	0.4038	0.32671	
280	3	0.73046	0.39874	0.30046	
281	3	0.69042	0.37261	0.33775	
279	3	0.67839	0.42108	0.30797	
1457	4	0.59151	0.48047	0.31618	
282	4	0.69372	0.45017	0.39518	
283	3	0.65885	0.44527	0.3928	
2225	2	0.56595	0.29946	0.29303	
2224	1	0.53902	0.28561	0.28484	
1841	2	0.63199	0.34411	0.44401	
1461	3	0.53448	0.38448	0.31222	
2226	2	0.53778	0.28866	0.25365	
32	4	0.52387	0.27001	0.4606	
31	3	0.52502	0.27333	0.42764	
1460	4	0.5414	0.41893	0.3177	
2256	2	0.63778	0.29971	0.34809	
1459	3	0.60618	0.41378	0.3022	
1458	4	0.58204	0.43742	0.30968	
2459	2	0.69323	0.29252	0.3945	
2460	2	0.65656	0.26054	0.4041	
2458	1	0.66201	0.29051	0.39663	
1657	1	0.71988	0.26392	0.29565	
2255	2	0.63751	0.27803	0.30348	
2254	1	0.61953	0.29462	0.3231	
277	4	0.721	0.43283	0.36386	
1840	1	0.63643	0.35449	0.47327	
2149	1	0.74926	0.29144	0.37489	
1658	2	0.73005	0.27816	0.32168	
851	3	0.60745	0.46416	0.46595	
1727	2	0.63362	0.30096	0.49411	
1106	3	0.94248	0.49681	0.29791	
272	4	0.75184	0.49482	0.42728	
303	4	0.97338	0.42213	0.25449	
276	3	0.78614	0.433	0.34018	
275	4	0.76416	0.44781	0.36523	
2384	2	0.88852	0.4401	0.42359	
2516	2	0.91985	0.30311	0.49124	
2435	2	0.96653	0.4046	0.46388	
1334	4	0.86663	0.41019	0.30173	
1577	2	0.99839	0.39114	0.39959	
2434	1	0.95144	0.40612	0.49133	
273	4	0.77912	0.47691	0.39561	
1322	4	0.87773	0.37389	0.32956	
1416	3	0.92211	0.28136	0.26698	
1327	4	0.81157	0.36108	0.27145	
1332	4	0.83243	0.404	0.27206	
2151	2	0.76746	0.31645	0.38007	
2438	2	0.8814	0.40754	0.48949	
1326	3	0.80898	0.2936	0.29448	
2385	2	0.92448	0.44822	0.39041	
1321	3	0.9083	0.37421	0.34947	
1576	1	0.98176	0.41695	0.40599	
2437	1	0.85832	0.42542	0.47806	
2060	2	0.87189	0.28577	0.44754	
1853	2	0.93474	0.2504	0.4352	
2061	2	0.84168	0.27301	0.41031	
1324	3	0.8721	0.30474	0.34182	
2150	2	0.7694	0.26765	0.37137	
2439	2	0.83733	0.40498	0.46689	
2383	1	0.89521	0.45668	0.39783	
1852	1	0.9205	0.25152	0.46312	
2059	1	0.84784	0.29631	0.43038	
2023	1	0.79275	0.36823	0.43052	
1335	3	0.88246	0.44216	0.30712	
1323	4	0.85947	0.33241	0.32479	
2024	2	0.81121	0.34322	0.42642	
306	3	0.98553	0.4154	0.32016	
2025	2	0.79534	0.38439	0.40377	
1325	4	0.82397	0.32506	0.29681	
274	3	0.81496	0.4829	0.39835	
2562	2	0.84527	0.48122	0.495	
2517	2	0.9357	0.34951	0.49873	
2436	2	0.95364	0.43622	0.49986	
2063	2	0.076852	0.048064	0.68828	
2062	1	0.082786	0.044209	0.71884	
2064	2	0.05898	0.026689	0.72932	
1788	2	0.1445	0.16392	0.69916	
1786	1	0.16194	0.18943	0.69382	
1787	2	0.18621	0.18662	0.71348	
2428	1	0.082251	0.051542	0.62656	
1706	2	0.16984	0.06726	0.57478	
2429	2	0.092396	0.02239	0.62101	
1993	1	0.17956	0.19073	0.60889	
2430	2	0.10329	0.070015	0.61244	
2045	2	0.031032	0.049614	0.5922	
1705	1	0.1661	0.084063	0.60099	
1707	2	0.17385	0.11331	0.59276	
1995	2	0.16468	0.21348	0.59325	
1994	2	0.17056	0.19448	0.63869	
2044	1	0.001258	0.049987	0.58236	
1121	3	0.06999	0.15494	0.64728	
1118	5	0.049716	0.17399	0.62412	
1116	3	0.021937	0.15273	0.71005	
1117	4	0.0099624	0.18793	0.64973	
2274	2	0.095948	0.10081	0.72138	
2272	1	0.10487	0.12803	0.73416	
1120	3	0.070113	0.20132	0.61484	
1759	1	0.242	0.17428	0.73123	
1760	2	0.24821	0.14382	0.72714	
2193	2	0.24296	0.12823	0.51362	
2054	2	0.24371	0.21005	0.60649	
2466	2	0.22985	0.062651	0.67802	
2464	1	0.23786	0.062744	0.6477	
2465	2	0.21082	0.067144	0.63244	
1119	3	0.043923	0.15319	0.59752	
1875	2	0.010485	0.21525	0.52344	
2378	2	0.23095	0.055759	0.52989	
2377	1	0.23094	0.024881	0.53538	
1835	2	0.28417	0.051687	0.72658	
1630	1	0.3188	0.008788	0.55506	
1761	2	0.26598	0.18911	0.71748	
2303	2	0.3804	0.10001	0.58159	
2302	1	0.35362	0.087846	0.59247	
2304	2	0.3527	0.096528	0.62259	
208	3	0.45394	0.14978	0.65848	
2298	2	0.3307	0.18906	0.67219	
2296	1	0.3133	0.21516	0.67215	
1839	2	0.31058	0.11941	0.56421	
1837	1	0.29806	0.14475	0.55062	
1838	2	0.29006	0.16336	0.57456	
2055	2	0.29137	0.21954	0.61642	
2053	1	0.26836	0.22653	0.59628	
209	4	0.42671	0.15584	0.59245	
1916	2	0.29137	0.23789	0.53377	
2297	2	0.33067	0.2362	0.68761	
207	4	0.45381	0.13762	0.62465	
210	3	0.39823	0.17874	0.60204	
202	4	0.47849	0.10071	0.61472	
197	4	0.4268	0.14139	0.54926	
1614	2	0.31151	0.10979	0.6892	
1613	2	0.35937	0.12166	0.69457	
1612	1	0.33503	0.125	0.67509	
198	4	0.45218	0.10522	0.53832	
1834	1	0.27323	0.07977	0.73525	
200	4	0.47732	0.084968	0.57129	
1545	3	0.36494	0.0049864	0.65742	
1632	2	0.33456	0.029677	0.57235	
196	3	0.41201	0.162	0.52387	
204	3	0.49675	0.081468	0.67984	
201	3	0.49684	0.054955	0.56394	
199	3	0.45345	0.099057	0.50283	
1544	4	0.39708	0.0033503	0.67029	
1653	2	0.26896	0.0097687	0.64742	
2379	2	0.25972	0.018819	0.54625	
1686	2	0.46282	0.24679	0.74508	
1684	1	0.43697	0.22917	0.74728	
1731	2	0.42122	0.16258	0.73684	
1729	1	0.40822	0.13405	0.73747	
1543	3	0.37796	0.027081	0.73417	
1542	4	0.40449	0.016198	0.71388	
1537	4	0.44551	0.0063841	0.73226	
1631	2	0.32661	0.015602	0.52546	
43	3	0.51945	0.18317	0.53291	
38	5	0.53041	0.24265	0.59866	
251	3	0.57293	0.11836	0.53739	
631	3	0.53653	0.19446	0.71725	
632	4	0.55343	0.16697	0.73013	
252	4	0.66846	0.13713	0.58451	
254	4	0.71147	0.12433	0.58689	
253	3	0.658	0.16667	0.60055	
636	3	0.65965	0.13492	0.72125	
635	4	0.62384	0.13212	0.72693	
255	3	0.73483	0.14262	0.60851	
633	4	0.59939	0.1693	0.71912	
634	3	0.61103	0.19468	0.69799	
247	4	0.63788	0.10876	0.56586	
637	4	0.60547	0.095231	0.74706	
243	4	0.69266	0.054206	0.55517	
242	4	0.72149	0.082072	0.57368	
244	3	0.70264	0.024551	0.53468	
638	5	0.63232	0.053773	0.74905	
203	5	0.50941	0.082203	0.64643	
245	4	0.65045	0.067244	0.55138	
640	3	0.63496	0.032725	0.71908	
334	3	0.7035	0.23795	0.70274	
248	5	0.58991	0.1156	0.56903	
246	3	0.62606	0.040957	0.5444	
249	3	0.57518	0.086282	0.58575	
250	3	0.5802	0.14448	0.58939	
42	4	0.52163	0.21772	0.52217	
41	3	0.51158	0.21257	0.60719	
241	3	0.74886	0.06584	0.58877	
333	4	0.7398	0.24055	0.70739	
2028	2	0.72523	0.066568	0.66965	
206	3	0.53946	0.099208	0.64838	
39	3	0.5661	0.23953	0.60844	
205	3	0.51746	0.048525	0.63551	
126	3	0.55203	0.051512	0.5165	
2523	2	0.71982	0.10863	0.51619	
2046	2	0.98912	0.023093	0.59299	
2481	2	0.98926	0.028396	0.74374	
1115	4	0.99786	0.16225	0.68597	
2528	2	0.99698	0.093053	0.54307	
2011	1	0.90123	0.11937	0.50813	
2479	1	0.97036	0.052646	0.74994	
1874	2	0.98271	0.17415	0.52387	
1825	1	0.82257	0.0095508	0.70064	
335	4	0.763	0.21791	0.73923	
1884	2	0.9385	0.12181	0.62733	
1883	2	0.95074	0.079354	0.60479	
2026	1	0.75308	0.06637	0.68407	
2027	2	0.76737	0.092378	0.67392	
1882	1	0.9261	0.095575	0.61543	
1661	2	0.92568	0.044325	0.71082	
1826	2	0.85077	0.023199	0.69923	
1662	2	0.91732	0.064283	0.66619	
1660	1	0.90846	0.040698	0.68486	
1827	2	0.80224	0.033413	0.69981	
1641	2	0.86085	0.16381	0.588	
1640	2	0.8722	0.11687	0.5993	
1639	1	0.85006	0.13445	0.58573	
2401	1	0.79227	0.14046	0.66409	
2403	2	0.78337	0.1702	0.65963	
1122	4	0.98015	0.21596	0.62934	
1982	2	0.80766	0.24014	0.58663	
1981	1	0.83835	0.23383	0.58804	
2402	2	0.81449	0.13558	0.6425	
1125	3	0.91267	0.22865	0.6206	
1124	4	0.93666	0.21582	0.64241	
1112	4	0.92536	0.1875	0.67461	
2012	2	0.88245	0.13157	0.53008	
1113	4	0.9554	0.15942	0.69634	
1111	3	0.88978	0.1849	0.68231	
1123	3	0.9911	0.24063	0.60634	
337	4	0.80759	0.22338	0.74586	
2527	1	0.99382	0.11509	0.52099	
2499	2	0.89286	0.011279	0.55513	
2013	2	0.93026	0.12493	0.51863	
1114	3	0.94531	0.13999	0.72455	
1873	1	0.98459	0.20269	0.51098	
2126	2	0.13533	0.42571	0.67427	
2452	1	0.13894	0.25042	0.55181	
2454	2	0.11063	0.25494	0.5391	
1785	2	0.057312	0.47914	0.54949	
2342	2	0.037592	0.27635	0.54403	
2341	1	0.052686	0.26131	0.52102	
2453	2	0.15322	0.27823	0.54931	
2166	2	0.16081	0.25211	0.68766	
1784	2	0.10301	0.47403	0.53089	
2468	2	0.055236	0.32167	0.6154	
2165	2	0.18614	0.29001	0.66809	
2164	1	0.16806	0.28224	0.69251	
2469	2	0.027378	0.34176	0.57962	
1899	2	0.12382	0.35766	0.64379	
1897	1	0.1105	0.32931	0.64224	
1898	2	0.12563	0.31232	0.66383	
1673	2	0.14494	0.4246	0.58882	
1672	1	0.16142	0.42665	0.56222	
1674	2	0.17417	0.45529	0.56306	
563	5	0.22243	0.49895	0.71417	
568	3	0.23267	0.40749	0.71089	
2325	2	0.22173	0.41321	0.60955	
562	4	0.19667	0.46449	0.73651	
1645	1	0.20896	0.30985	0.61654	
1647	2	0.18937	0.31947	0.59402	
1876	1	0.028963	0.39235	0.55078	
1877	2	0.04998	0.41375	0.54162	
567	4	0.20424	0.41865	0.72908	
1878	2	0.0034853	0.39847	0.53355	
1783	1	0.073153	0.4658	0.52594	
2467	1	0.030865	0.31563	0.59661	
347	4	0.026275	0.33982	0.74007	
346	3	0.060222	0.33716	0.74752	
2324	2	0.22709	0.36395	0.60721	
2323	1	0.24349	0.39064	0.6087	
2127	2	0.090516	0.42996	0.65343	
2125	1	0.12059	0.42424	0.64662	
569	4	0.17234	0.38924	0.74398	
570	3	0.18013	0.35429	0.74263	
2018	2	0.22072	0.29192	0.72391	
1570	1	0.028577	0.45078	0.66444	
2395	1	0.17397	0.33238	0.53867	
1646	2	0.23346	0.29786	0.60106	
2184	2	0.014275	0.47994	0.61163	
2397	2	0.15622	0.3579	0.54281	
348	4	0.0040363	0.30117	0.73379	
349	3	0.019032	0.2701	0.72314	
2396	2	0.19962	0.34294	0.52403	
1746	2	0.23819	0.48269	0.5483	
2369	2	0.098631	0.3949	0.50218	
1744	1	0.21742	0.49787	0.56624	
564	3	0.22032	0.49329	0.67788	
1571	2	0.029445	0.47682	0.68191	
189	3	0.48965	0.47057	0.72106	
1734	2	0.41236	0.29014	0.52383	
1915	1	0.30206	0.25589	0.51042	
2019	2	0.26526	0.30906	0.71039	
2017	1	0.25027	0.29487	0.734	
566	3	0.25778	0.49442	0.71837	
671	3	0.34906	0.32936	0.6427	
670	3	0.37144	0.28817	0.61211	
1923	2	0.26844	0.41547	0.52701	
1270	3	0.33326	0.39944	0.67385	
1269	3	0.31418	0.42937	0.71991	
669	3	0.32067	0.31162	0.59983	
1268	5	0.33595	0.40561	0.70991	
668	5	0.35379	0.31725	0.60857	
665	4	0.42364	0.34925	0.57084	
667	4	0.3793	0.3501	0.58111	
674	4	0.37454	0.41985	0.54042	
672	4	0.35391	0.38643	0.56691	
673	3	0.32298	0.39414	0.58548	
663	4	0.44442	0.38142	0.54766	
662	4	0.41984	0.41453	0.53191	
666	3	0.44828	0.33065	0.59105	
1271	3	0.32557	0.37726	0.72961	
1273	3	0.40261	0.39608	0.65827	
1267	4	0.38122	0.41487	0.72312	
1272	4	0.41271	0.40301	0.69276	
664	3	0.48041	0.38121	0.54299	
1275	3	0.47524	0.37546	0.67893	
1274	4	0.4547	0.3903	0.70368	
661	3	0.43733	0.44078	0.51679	
1262	4	0.46726	0.38912	0.74728	
1635	2	0.47624	0.31137	0.71226	
675	3	0.3581	0.44829	0.52678	
1732	1	0.39509	0.26813	0.50966	
2456	2	0.38738	0.26213	0.72464	
2455	1	0.35984	0.27664	0.7209	
1917	2	0.33287	0.25006	0.50947	
1921	1	0.27009	0.4381	0.50535	
2488	1	0.73129	0.48914	0.7345	
2489	2	0.70659	0.48705	0.71528	
40	3	0.5179	0.26858	0.61913	
1947	2	0.6507	0.28923	0.64868	
2218	1	0.66371	0.49852	0.66945	