LAMMPS data file via write_data, version 21 Nov 2023, timestep = 300000, units = lj

1149 atoms
2 atom types

-20 20 xlo xhi
-20 20 ylo yhi
-20 20 zlo zhi

Masses

1 1
2 1

Pair Coeffs # lj/cut/omp

1 1 1
2 0.5 3

Atoms # atomic

4 1 -12.851532868103513 19.041430486995665 -17.33157476724523 0 -1 0
121 1 9.010810900014588 -15.39098636452893 -18.89190341947052 0 0 1
871 1 -16.94835918187021 -17.084782347240985 -17.70272851738323 0 0 1
995 1 5.890572233924281 -15.293826353490736 19.804189473118004 0 0 -1
143 1 -9.780811597561446 -16.29302907640494 -19.812478218589924 0 1 0
569 1 1.2688053259478298 -14.60191666918609 -19.093278298006503 0 0 1
701 1 11.415926771359523 -12.147850286343298 18.628809313357355 -1 1 0
692 1 7.069450544570369 -10.444544292344341 -18.573439556924683 0 1 0
76 1 13.007049351041491 -10.448261770288026 18.457310754684713 0 0 -1
893 1 2.5259603557694894 -3.5929332230446636 -19.866465430847338 0 0 1
526 1 7.643751380306857 -5.073584333696078 19.81201359030803 0 1 0
334 1 -19.6838842771712 -5.575980583671735 -18.144523744634267 0 0 1
677 2 -16.98973399884854 -4.429871397493118 -18.752585080108823 0 0 0
713 1 15.839951220818257 -5.299955047997804 18.500573526965155 -1 0 -1
94 1 -13.523002935306973 -1.3957177858981282 19.956901011324348 0 1 -1
1079 1 -8.137353157381149 -0.9197688347671769 -18.903416576375005 0 0 1
226 1 16.102474553692996 -0.10803875786293896 -19.692770998762423 0 0 0
596 1 5.673622016798249 0.18909809030524116 19.936902022240417 0 0 0
308 1 8.89787705537834 4.302425402787948 -19.42199816442429 0 0 0
696 1 13.783576418385383 1.0189450222606915 -19.084661252876266 0 1 1
584 1 13.360295879614469 3.4105134569781383 -18.77572344961098 0 -1 1
612 1 12.640397822608474 5.944714803956405 19.906060338130292 1 -1 -1
952 1 -5.516975858252046 6.247012798153721 -17.73289260617742 0 0 1
666 1 -4.336176725472947 9.926782496323332 -19.338150475939283 0 -1 1
861 1 -9.215551024868871 11.046865097041607 19.835129525169133 0 0 -1
262 1 14.830534876955504 10.851738373737849 19.080799114367775 0 0 -1
659 1 -2.068469558437248 12.958758925091672 -19.57559351651673 0 0 1
86 1 7.372811739153137 10.141540860057777 -18.1571826128662 -1 0 0
1100 1 -9.963272392556375 15.640821573549465 -18.194341214854177 0 -1 1
1093 1 2.9388036773675505 16.8103623423905 19.046517492302627 1 -1 0
1118 1 5.769605194503791 16.853792927739416 -18.65151446735198 0 -1 1
914 1 12.675509198731513 18.55257275552533 -17.671305884458498 -1 0 1
621 1 -11.415762522897717 -17.66260434022553 -16.470847779890835 0 0 1
464 2 -4.302498865671112 -17.294802071588016 -17.084953093645655 0 1 0
624 1 6.61135642850245 -16.330090778920066 -17.443961527763236 -1 0 0
972 1 -11.83600736417599 -15.248853433188257 -16.952309738335046 0 -1 1
248 1 -4.3582685019412715 -15.924690981595573 -17.95192298816988 0 0 0
393 1 7.934303532965641 -15.98002786892636 -19.007475329767477 0 0 0
17 1 -10.711741942486311 -14.542841407717951 -17.082873142393925 1 0 0
682 1 2.180734194219482 -15.763493464777286 -18.99490292512759 1 1 1
1136 1 12.631931228585962 -15.594176398885917 -16.897664124030506 -1 0 0
123 1 19.853584084957557 -17.164312417571356 -18.441685492825783 0 0 0
480 1 0.5447451277251717 -12.559913658251745 -18.10280317152106 0 0 1
279 1 3.204718820896047 -9.649874741577817 -19.83543495779171 0 0 0
585 1 -15.711571006634838 -10.059690375096299 -18.448392516210465 0 0 1
317 1 -12.38961803512499 -10.676468189395857 -16.893150999591942 0 1 0
270 1 1.7161176490443673 -8.086296149949542 -17.75825164955646 0 1 0
1065 1 2.348152748567045 -9.15978023553392 -17.167547938792165 0 0 1
795 1 -3.966594799045 -9.941353419465171 -15.96523515956145 0 0 1
90 2 -8.519179027387619 -6.7012499628921685 -17.939991601011794 1 0 0
1099 1 4.799825316737229 -6.623932086612372 -15.273207941823143 1 -1 1
813 1 -15.767750721080155 -5.115632597086226 -17.519280477473675 0 -1 1
275 1 -9.928811848290223 -3.9117036137439802 -17.18908623619204 1 1 1
474 1 -6.754378427428692 -3.8150017224725357 -16.651944779560836 0 0 0
191 1 0.3257077456464408 -3.5440409505843204 -17.240839410629206 0 0 0
953 1 1.016255344096765 -1.0148500775464004 -17.455120628138854 -1 0 1
65 2 8.884655411114508 -2.160371830996799 -17.029665020025213 0 0 0
833 1 15.685176749585802 -1.614324014833975 -17.250430928564853 0 0 1
289 1 -17.314515121011777 0.9237874691430804 -18.304679865842886 1 0 0
1133 1 11.743613934763035 -2.820648539234023 -17.287391428142907 0 0 1
1018 1 19.38512881003898 -1.356320753351854 -17.427127797627694 0 0 1
706 1 4.781607557898884 -1.1481909440973017 -16.7866587307504 0 0 1
819 1 -14.01397893715576 3.125948254829942 -18.887763521163166 1 0 0
1111 1 -7.316123168343378 3.518014535418177 -16.538635129899603 0 0 1
823 1 7.009657580677655 6.472444421840212 19.99105922547035 0 0 -1
346 1 -5.860940646369126 7.825756751397823 -18.056155957321746 0 0 0
197 1 5.028528822750306 9.117517376265635 -17.460554988446496 -1 -1 0
1014 1 6.627393124095755 6.562864629565149 -16.00959627521553 0 0 2
1057 1 10.715504836627007 7.296003529035647 -18.936184055788935 0 -1 1
179 1 11.445195601375588 7.664931073644921 -17.749143072297624 -1 0 0
919 1 -2.1311907531671106 10.597989440182806 -18.088954503550905 0 -1 1
176 2 13.381836077993386 9.1075430023316 -18.105181197671666 -1 0 0
527 1 -18.517909518028883 13.74592864889009 -18.638125911663835 1 0 1
12 1 -10.769116525592388 16.239512024645975 -18.99299951403604 0 -1 0
413 1 11.031832203022285 18.030631194178277 -16.537337542721684 -1 -1 0
247 1 10.645692046573458 18.413801311504198 -18.362135765124382 0 -1 1
257 2 -6.661198051520532 -18.351009411026514 -15.60454913380242 0 1 0
39 1 1.7373030832018432 -19.4030758447947 -18.815584177213022 0 1 0
1009 1 12.539609530028168 -16.81481852858419 -16.368374478265537 0 0 1
104 1 -14.326138351315977 -14.49203849285872 -17.589704984790135 1 1 -1
961 1 13.585154991613804 -15.964187335953794 -16.04648506150438 -1 1 1
206 1 -17.40857864361292 -15.243264777182883 -17.230999683070653 1 0 0
456 1 6.588478826875143 -15.315605853893086 -13.860852881021556 0 0 0
1056 1 -4.856657903155691 -11.817934574932938 -17.881418683699923 0 0 1
667 1 -4.851624973205908 -10.414941319590607 -15.382048125000408 -1 0 1
508 1 6.724165394284737 -11.51410326198372 -18.8006909428939 0 1 0
384 2 -10.031829100875978 -7.381873026260078 -15.939416777358273 0 1 0
77 1 -0.47534284355530704 -8.602147142221677 -16.97139168784904 -1 0 0
451 1 7.410592696899466 -9.32995856685661 -16.21452761817459 0 -1 0
208 2 -19.334546696852907 -7.904494608575251 -16.335860665431976 1 0 0
344 1 -4.209691596425525 -8.846246915402324 -15.794022166132283 0 0 0
1127 1 0.7202355412158671 -8.801226868187998 -16.342184702330634 0 0 1
441 1 8.595711820771283 -4.152387430484346 -16.71892374536684 0 0 0
604 1 10.303073651731896 -5.943070644256864 -16.819099159538972 -1 0 1
478 1 -18.271499779056906 -4.169170682793635 -14.108016043815132 1 1 1
1008 1 18.634026656967773 -2.957057957742701 -16.025569932619387 -1 0 1
771 2 -15.034464944515063 -4.198409704995686 -15.637664435124375 0 0 0
461 1 0.3476652216116207 -1.5426957238970314 -15.848307815699727 0 0 0
525 1 -16.65822083622317 -2.5384848029095806 -14.756850943398916 1 1 1
21 1 -4.546609034855838 -2.9551272918960665 -15.755441697884605 0 0 -1
383 1 10.131889535528707 1.9434591600103712 -16.220674416438204 -1 0 1
951 2 -17.809756878333047 3.2162832986100556 -18.35815362894536 1 0 0
443 1 -3.305714824338904 1.7937513273326164 -16.706756993058903 1 1 0
133 2 -10.160783231310536 3.2284702085458106 -16.317721532839695 1 0 1
745 1 -13.747942983058344 6.582045155819679 -13.662872337838552 1 0 1
203 1 -7.510577066533149 2.153028764605641 -16.238185103718344 0 -1 0
647 1 15.045498910302975 4.588212969714476 -16.120547211642428 0 0 0
335 1 -13.871926181530014 8.23620664698497 -18.012334598499763 0 0 0
276 1 9.688901652349019 9.310827402359008 -17.598249752891697 0 0 1
485 1 5.778247258807748 12.348665319093858 -15.252621364131139 0 0 0
15 1 -17.579788461132647 14.258536055720548 -16.049018382798725 0 -1 0
189 1 -7.129217159771696 18.480770755337318 -16.959192845463473 0 0 0
661 1 -1.7961425306737435 17.58190861183743 -16.38939919969333 0 -1 1
936 1 -19.50983546111555 -16.658581089817453 -14.777707955366933 1 0 1
839 1 10.612916141567455 -19.576412807478544 -16.25658604803051 0 1 0
590 1 14.463062105829682 -18.487017568070865 -14.201741529363778 -1 0 1
579 1 -18.053971838046298 -16.658247738513058 -15.14864862179513 0 0 0
274 1 -10.098419351567893 -13.878371409924327 -16.54984362766516 1 1 0
26 1 -18.21368529232647 -13.166779322813046 -15.96889093423589 0 1 -1
437 1 16.93928074441511 -11.104141452542057 -14.389005267499515 -1 0 0
824 1 -16.48106889120919 -10.071186571859673 -15.599535966813763 1 0 0
296 2 -19.151452696754237 -11.403824152798197 -15.855006523984644 0 0 0
676 2 10.086776930519939 -8.18676532796174 -17.195072970458117 0 0 0
430 1 -0.860638788619641 -9.202211969973185 -12.504736926293784 0 1 0
860 1 10.74704349905714 -8.535727346392498 -14.242706941236326 0 0 0
721 2 -12.960385563621081 -6.2593609072399214 -16.19021408088206 0 0 1
252 1 4.9350216177500945 -6.100102545235352 -14.317065941191531 -1 0 1
891 1 19.45093146487483 -3.207206005568102 -14.913846848723862 0 0 0
1116 1 -3.5991249229860025 -3.27453708939944 -13.905425795006026 0 1 1
211 2 -0.3991112444735796 -3.725175194352502 -13.939822266083848 0 -1 0
538 1 11.049845200645889 -1.7022021963976681 -14.830058559098333 0 1 0
156 1 1.9442871390683345 -1.6027356411159974 -14.952922513059788 0 0 0
82 1 3.4792344267071633 0.7097660331441671 -15.851875391506557 0 0 -1
870 1 9.838905839658803 0.7119461302318536 -16.07937374299887 -1 1 0
1130 1 1.4130075680490257 1.7876452837564591 -16.85920259747547 0 0 1
473 1 -13.323672321624388 5.677988550793643 -15.086894442665676 0 0 0
181 2 1.0409712286771764 3.659895306224327 -15.44889274039873 0 0 0
497 1 -18.555867812207637 10.330265464416962 -15.970935758639936 0 -1 0
955 1 -15.477392076501213 8.292295667785348 -13.556470181250328 0 -1 0
56 1 4.810633301920516 9.875301491766766 -13.692491166059444 0 0 0
290 1 10.39517685670933 10.120917539181896 -14.200548740347859 -1 0 0
69 1 16.86521779065453 10.299162458918397 -13.48335241863197 0 1 1
543 1 -5.922282717770695 11.650476880689254 -15.524894583909957 0 0 0
997 2 0.6863302052219084 13.459472955328694 -15.71864995132293 0 0 1
20 1 6.823357046861362 13.674126277678704 -14.507574300131955 -1 0 0
177 1 11.66269429703016 19.224764025690682 -14.687549656434363 0 0 0
215 1 -5.843683827277605 -19.44803680488671 -13.684619782419238 0 1 0
332 1 5.0438653610284625 17.800879026184276 -14.068884193032451 1 -1 1
986 1 10.244527102389563 -16.419730063413322 -13.945833558961668 0 0 0
135 1 -11.84059423392065 -16.62676670134047 -12.40391400805677 0 0 0
1002 1 -2.0198561324324777 -15.322095037762038 -13.9727519583962 1 1 1
132 2 8.963274415057288 -18.009491377052946 -16.016427385523443 0 0 0
78 1 -12.280624789076883 -13.754392564802824 -13.896703364132444 0 0 0
434 1 0.19796095027365776 -14.883280604294589 -13.677491814124366 0 0 1
640 2 -3.662911445631824 -13.17225078803376 -14.763190331789156 0 1 1
471 1 -16.03426565174473 -10.930127964128449 -14.138779475817453 1 0 0
620 1 -16.076054339803203 -9.403359329235114 -14.185846512312045 0 0 0
928 1 -7.780445120060666 -11.150219982288238 -13.663756640515416 1 -1 1
750 1 -14.584366046027409 -8.183512204762284 -14.891111817287008 0 0 0
295 2 -8.369033838617634 -8.34782510703081 -13.77715320838657 0 0 0
603 1 18.661159966621085 -8.098056507382646 -14.61265631973104 -1 1 0
472 1 -17.67410812615156 -8.1510384281333 -13.89254986399258 0 0 0
766 2 -3.2335275329226807 -7.86934984396937 -12.164979698590422 0 -1 1
1027 1 -13.427882826519902 -4.2729254598594535 -14.447810538058237 0 0 1
695 1 18.527889169143865 -4.0927726412392325 -14.731823695839267 -1 1 1
948 1 2.670859325994157 -1.9006574362078341 -12.563974842763518 0 0 1
16 1 -17.29906487170133 1.2530391622457089 -13.142300469430957 1 0 0
1062 1 -3.9484269874390976 -0.4389628854819537 -14.443094874604466 0 0 1
1004 1 0.7446974961163828 -0.8937409292377367 -13.566633143735894 0 1 0
328 1 -18.832694980147664 2.032819086518981 -13.421375501611418 1 -1 0
452 1 2.4109551971620524 2.045197699693548 -13.899807675561714 -1 0 0
716 2 9.844621913805298 2.8560324458137756 -12.699903852304304 0 0 1
387 1 -11.336594768651203 2.146746077025556 -13.205104436182204 0 1 0
971 1 14.21318040744966 4.023884097751465 -13.208932648926499 0 0 1
552 1 -14.619347652239206 4.795820519002535 -13.91706224437252 0 0 1
394 1 -4.713170249847219 3.783231613847486 -13.042605269928458 -1 1 0
183 1 -1.610638978202983 4.953598195683571 -15.432409159235245 0 0 0
117 1 -6.279892064038164 8.011918916629757 -14.485694705733872 0 0 0
75 1 -5.676972113813961 7.089837257898687 -13.321690998731192 0 -1 0
184 1 6.893285689583505 13.807907529423266 -12.83990888316642 -1 0 0
146 1 2.806531811813305 18.08175176986393 -13.466855946265342 -1 -1 0
38 1 18.1098577734674 14.88351402928342 -14.859045371023294 -1 0 0
775 1 3.535613785022258 17.46989010309482 -13.739129596853722 0 0 1
1039 2 8.976503766646605 18.184627535887397 -13.533388242946643 0 -1 0
534 1 12.88048529376864 17.515623101763076 -13.955783883259715 0 -1 0
521 2 -13.539158224742932 -18.488400080986988 -14.946084708585325 0 1 0
366 1 18.94958837074428 -19.0883279361162 -13.003939462514836 -1 0 0
570 1 -17.60284079798202 -16.740119330590623 -11.20982516935403 1 0 0
305 1 -8.10506908830477 -14.793466799124511 -10.876489752156143 0 1 0
826 1 1.3231179481506556 -13.803361949367005 -13.332251371158067 0 0 1
297 1 -5.599896542509304 -13.221448755546376 -12.336223089716325 0 1 1
1016 1 -2.646858381178107 -13.939872360187758 -12.019823950866472 1 0 1
872 1 5.292593307343176 -16.062403146791834 -11.380565164542336 1 1 1
974 1 -8.110452298553884 -14.683427991352282 -12.450158078566915 1 1 1
462 2 -7.774206612767717 -10.093085056118529 -12.015147364418453 1 0 0
1095 1 6.4330299284658645 -10.33455033130576 -11.156378280491191 1 -1 0
13 1 17.261394951619717 -8.982476485204378 -11.728774453261096 0 0 0
768 2 -9.613625982230753 -7.20680480084727 -11.548719580138462 0 0 1
895 1 7.41699920926686 -7.0363229882570755 -12.066746385990482 0 0 1
902 1 16.47284114742778 -6.457887942379419 -11.599790671562252 -1 0 0
743 1 -10.293854122410941 -5.477008769467887 -11.255047939276603 0 1 0
468 1 -1.0618087411963204 -4.9376077755133885 -12.235356162708293 0 0 0
633 1 17.745027794398435 -7.554900588414986 -11.515263197616953 0 0 0
541 1 19.277699034038626 -2.649908526472101 -13.341084636740094 -1 0 0
850 1 3.421294901228836 -0.8248167582445397 -14.055542993456944 0 0 1
686 2 3.4862267325428964 1.7595479983297075 -12.142701080251896 0 0 0
1040 2 -5.1783637701526635 2.5124695441847074 -12.113231465898549 -1 0 0
126 1 6.0786911256548555 5.756817199857392 -11.270139638980433 0 -1 0
966 1 5.869808485573262 4.3059447877839485 -11.875641457784644 0 0 1
241 1 8.467653603756375 4.9721945935657335 -12.306058637067734 0 1 0
458 1 11.361080044082822 6.318273356533874 -14.395806746211425 0 -1 0
140 2 13.08777939147014 6.907413898352598 -13.06511797075774 0 0 0
500 1 18.15663226784468 7.275666776461398 -11.990688721162762 0 -1 0
664 1 19.91393979002602 7.798358083964142 -10.931337514034498 0 0 0
107 1 2.2226715996329167 11.086082434796836 -13.416743571531448 0 0 0
831 1 -10.060502668907732 12.342588105163154 -10.488582532767953 1 0 0
720 2 6.923411890124591 13.971251508574069 -10.797344889417788 0 0 1
683 1 -10.699823478616738 12.15437860030015 -12.05860834877508 0 0 0
703 1 -16.173307850913805 17.613009461138482 -12.031179323730525 0 0 0
896 2 -7.644268083090186 13.542795363137612 -11.424097213022826 0 -1 0
1076 1 1.2320274001982743 15.297301404444246 -12.523265043921226 0 -1 1
122 1 1.3809471772822142 17.45775685352039 -12.200171053436414 0 0 0
930 1 -9.453118552454281 18.917170541565532 -11.484358562496332 0 -1 1
963 1 -17.39007340800551 -19.12492806821794 -11.149593233615393 0 1 0
391 1 -13.752764407174755 -18.82946962550113 -11.141834377636297 0 1 0
229 1 5.364667846033187 19.787781998930527 -12.171165378979635 1 -1 0
634 1 8.820217034726074 -17.512503215677075 -11.016792325681614 0 1 0
1096 1 18.797077139548364 19.645728476409747 -13.055005751649366 -1 -1 1
786 1 0.5748907784960473 -17.589988628103885 -12.534568378534328 0 1 1
71 1 -14.796464585518681 -16.52589203572421 -10.181436442051858 1 0 0
656 1 18.715515645036277 -16.72227064272096 -9.094447858656963 0 0 0
1011 1 19.830338312852373 -14.617452230540707 -9.594913422953985 0 0 1
238 1 14.631911567061216 -14.831417759633542 -10.766136386498832 -1 1 -1
273 1 -13.09309349909152 -13.119042164212148 -11.363882934015296 0 1 -1
171 2 19.906995331107197 -8.674481983033434 -13.10297724555103 0 0 -1
970 1 0.09904330296207998 -7.059453345107397 -9.292240975306798 0 -1 1
1084 1 16.509125739207715 -10.7861390739955 -11.463893168783617 0 0 1
991 2 -12.876130064979423 -4.999518644061166 -9.375263636736756 0 -1 1
431 1 -11.784744083818975 -5.382790332823069 -11.55960242555259 1 0 0
174 1 -12.585209313486345 -0.1918494941473949 -11.62244278219986 0 0 1
629 1 -0.5330175346818359 -0.41057781179749336 -11.749652993797824 0 0 0
835 1 15.58203733734967 -2.262852013875856 -11.665309773796302 -1 1 0
51 1 19.24851896102191 -1.4887102176991929 -10.907996008013663 -1 0 0
306 2 8.788510293304604 -2.957510141871901 -10.399815227923131 -1 0 0
493 1 19.599517340605665 -0.5401231812378157 -9.391908389125538 0 0 0
173 1 -11.626287577867833 1.0352016144042027 -12.514472211197157 -1 0 0
1109 1 -15.388779262962501 4.309227985740994 -11.08321558048594 0 0 1
563 1 -6.627965502017056 3.6182794570116505 -11.739077331528165 0 0 0
602 1 -8.014848805214461 4.746583491140083 -10.895410318680986 0 1 0
732 1 -4.601703722423285 3.8211921519097856 -11.043044856240835 1 0 0
49 1 -3.426736009492219 3.9249198086364396 -10.703826667385087 0 -1 0
874 1 5.52656157097546 5.4822273434935145 -10.44045124208776 0 0 1
834 1 13.853509517929975 5.112029644890423 -12.487535333647076 0 0 0
542 2 -8.767971264265187 6.367556847243512 -11.90418261668821 0 -1 0
347 1 -19.44493626269767 6.7620447179441285 -9.928915826630215 0 0 0
88 1 3.167023810861111 7.523733213860419 -8.89428842707082 1 0 0
342 1 5.083193914835266 8.108784620064073 -9.55080491995295 -1 0 0
746 1 16.67976911691046 5.752332987995353 -7.790491174370404 -2 -1 1
1043 2 4.147355362986167 7.26783796054127 -10.764304922900795 0 0 1
316 1 -6.402706176825914 14.709061816273126 -9.664837548649226 -1 0 0
1090 1 2.3042128194579266 15.610312591288276 -9.758338054809174 0 -1 1
1097 1 -15.847373067103247 14.990166693074604 -12.433996918100483 0 -1 1
759 1 -15.74054614383339 16.541397505530046 -11.48461008510551 0 -1 1
890 1 2.522844630636325 18.858744197691923 -10.042195519360874 0 -1 1
367 1 12.177746073615088 -19.932957644125302 -9.89316253167621 0 0 0
651 1 -7.583585297550828 19.18003271575843 -11.038506248991755 0 0 0
161 1 6.4912039393948735 19.05779857876599 -11.18716126272447 0 -1 0
519 1 1.9427674590441077 19.895523943815455 -8.921378483945363 -1 0 0
249 1 5.129634075432486 -19.040744094928918 -8.220090220306504 1 0 0
427 1 -17.15225692188942 -12.638416423963841 -9.09086539477914 0 1 0
415 1 -14.04463373677932 -14.133898951292045 -11.660145414651902 0 0 0
254 1 -10.69323308193106 -14.746195149073543 -8.228056690644724 0 0 0
178 1 7.158009507626487 -14.592879230340806 -8.287328213405335 0 1 0
1125 1 9.025912711946779 -15.37286091166042 -7.671859683873506 0 0 0
503 1 10.4656145453341 -14.291357120136057 -10.409393357679473 -1 0 0
403 1 -7.4512291655116805 -12.92706983875747 -7.745165306530859 0 0 0
881 1 1.841911907583615 -11.481875481615589 -9.417542990246156 0 1 0
25 2 5.431939608062129 -9.281638928437987 -8.612606767878052 0 0 -1
459 1 9.74157876757998 -9.424566182113166 -10.93849942401732 0 0 0
204 1 10.014153786831288 -8.647147667736009 -9.45585111170442 0 0 0
530 1 11.94788713316777 -10.00345807678014 -8.021293004615913 -1 1 0
392 1 16.67341427138905 -9.659838884574654 -10.866686938334693 0 1 0
943 2 -7.677632471160818 -7.650029498086789 -10.028197777291808 0 0 0
1107 1 2.5714937827018653 -5.109921511208202 -10.468385553328002 0 0 0
522 1 -5.56955628690149 -4.409845738442155 -8.821548208289386 0 0 0
381 1 18.118091529631823 -2.137592381769178 -10.768899838909924 -1 0 1
324 1 -9.799756405930953 -0.7199578649032556 -9.400743056326545 0 0 0
370 1 12.533322406753395 0.25762051150288734 -7.824845683823067 -1 0 0
536 1 3.491765675222795 1.081465963941155 -8.675591991715926 0 0 0
694 1 16.675484550146162 0.8972391773152706 -8.947920457233275 0 0 1
444 1 13.68095367452143 -0.8192751299029809 -9.79066304128248 0 1 0
734 1 -18.20629783997133 1.7407905790370142 -10.86514156966215 0 0 1
67 1 -2.5005869619935286 3.3745672043530117 -9.890971406725184 0 0 0
330 1 16.81199241419617 4.817230806688356 -8.286132718667282 -1 0 0
593 1 18.43226654292648 5.2818939263500875 -9.682834146527844 0 0 0
398 1 17.795609118238783 10.226368595500885 -9.209837185831269 0 0 0
152 1 15.792073226615335 8.983930450211064 -7.698910612897275 -1 0 0
811 1 17.42103682793475 9.545292920088079 -10.374840748572126 -1 0 1
671 1 17.802758387236118 9.052306972290557 -7.167429443197317 -1 -1 0
899 2 12.653374311088276 11.037387373423314 -10.378116675770022 0 -1 0
828 1 -16.700633284974355 12.973616556487464 -7.725668584439927 1 0 1
129 2 -14.495601476467076 11.949322118409714 -9.312870073822651 0 0 0
149 1 5.316645141497994 11.967906244698908 -8.678360736190799 -1 0 0
1129 1 -18.37412063316648 12.405871009738048 -10.949521208694973 0 -1 1
1061 2 -5.691091102271072 12.176051103885431 -8.725962927380229 0 -1 1
731 1 6.760229224802746 14.346640650363566 -8.644405069964764 -1 0 1
913 1 15.606020537802948 12.762573098348938 -6.9599030102326775 0 0 1
1121 1 15.785113654463897 11.897359798435563 -7.92671430170069 -1 0 0
854 1 14.818600177124914 13.806230858760916 -10.44617650321942 -1 -1 1
185 1 -14.97483416133005 16.903701130405494 -8.547109251458421 1 -1 0
946 2 -15.497810547099993 19.0472357484064 -9.012495508671899 0 0 1
28 1 -13.084884430792153 16.380324581222787 -12.367967668852188 1 -1 -1
163 1 -14.285894739801252 -11.8914885763765 -8.043889165684375 0 0 0
116 1 -11.977213870628159 -15.920694709230546 -8.406383581663677 -1 0 0
940 1 -7.478901521059294 -11.671539580876738 -8.216961801771289 0 0 0
339 1 -7.143828061825769 -12.210419480585578 -6.318703931038652 0 0 0
467 2 9.32835693460195 -12.625331239247048 -7.320728751898892 0 0 0
113 1 19.691963926914646 -14.956614336901445 -8.08038324047963 -1 0 -1
1147 1 -15.263200637940702 -9.944518765539847 -7.533840364072947 0 0 1
244 1 8.91646556779458 -11.85794699428952 -9.062526204524831 0 0 0
894 1 8.96602422369578 -9.44627780348973 -9.428245097115429 -1 0 0
227 1 -17.140106225304404 -9.893205561342526 -7.9634513680849075 0 1 0
756 1 -16.787095872400002 -7.082749255314825 -9.484213405713328 0 0 1
662 1 -9.864962402212873 -7.858434335079167 -7.05416661254279 0 0 0
168 1 17.181323895161096 -9.523937427160009 -6.755877445940515 -1 0 0
932 1 -8.238727553250913 -4.8377788148395995 -8.529039319888131 1 0 1
1115 1 -9.454389175257287 -5.014874551355766 -9.94001662336784 0 0 1
1038 2 -2.4645281985267236 -3.789646285784357 -8.146758871007167 0 0 1
1031 2 9.580062901715037 -4.152258336306944 -8.344258437158754 0 0 0
380 2 18.623919327043744 -3.9514500810610342 -6.523777920660582 -1 0 -1
59 2 -1.3645638489150762 -0.24971915878831502 -6.961374702377535 0 0 -1
577 1 -19.382590818777174 -1.9545653527917468 -8.080583967872386 1 -1 0
622 1 17.632375655521113 1.4334400759543682 -9.240806390492715 -1 0 0
402 1 -6.455614845207954 2.241962280049312 -7.196141669583137 0 0 0
598 1 -4.5653681525737095 2.9261279438588934 -9.744881326253147 1 0 0
687 1 -13.732496118677442 3.6163693006770976 -10.91547396724137 1 -1 0
935 1 6.30651245499275 4.818320688863513 -9.524356269206478 0 0 1
1033 1 13.285793219982253 8.482270361019491 -8.684421534183148 -1 0 1
293 2 1.4463803787465725 11.224726998845826 -7.078575037675745 -1 0 0
312 1 13.621464812336812 9.803664608969937 -9.341913980853077 0 0 -1
532 1 -2.4108208521076855 10.846052625352078 -6.620619768924204 0 -1 0
118 1 -2.3770403150820596 13.45514774235229 -7.648755236583427 0 -1 0
554 2 9.497088676241729 13.45874398874277 -8.707117596408983 0 0 0
433 1 10.990310993687531 12.427704386635668 -8.1734099098367 0 0 0
565 1 -14.536425782021839 16.11969969560506 -6.338791209430443 0 0 0
837 1 -1.022503366292581 15.778182849474202 -7.018679137230709 -1 0 0
751 1 -13.244258783284836 17.5190058759944 -7.092286056281059 0 -1 0
652 2 -11.585219099901257 13.766722355195174 -6.739669740604019 0 0 1
425 1 7.9278347573567185 16.65427968167677 -9.250492389307894 -1 0 0
712 1 -7.41176360713293 18.702301941690244 -6.161257384196208 -1 -1 1
790 1 -5.897588342394416 18.97193900903445 -9.600803081040343 0 0 0
785 1 -1.1175811225703516 19.72970210275766 -6.799276499104197 1 0 0
1146 1 19.771511556565816 19.988156836867823 -7.143765761715255 0 0 1
883 1 -19.043855666812675 -14.793843797168464 -6.965668858356613 0 0 1
933 1 -17.789984526460767 19.899356676371948 -7.453455058203391 1 -1 0
742 1 17.68044046522146 -17.263183157514792 -5.815580773221289 -1 1 0
329 1 7.043371357751494 -17.605983709602764 -5.466874156670259 -1 0 0
636 2 14.929605922408765 -15.995326171364862 -6.22197598722309 0 0 0
2 1 -17.76096111537123 -15.686734405155471 -5.917817417590272 0 0 0
1101 1 -13.371681025464179 -13.578457419711059 -5.819549813437759 0 0 1
1088 1 -10.353848485827404 -11.042310307877356 -6.863578248438552 1 1 0
259 1 -3.682235218301434 -13.087933613528817 -5.170100476249736 0 1 0
573 1 5.660087138486591 -12.334977577151294 -7.747652155839951 1 0 0
1058 1 9.395279977599746 -11.886367486085266 -4.770256449554089 1 0 1
154 1 -14.403711530482681 -11.70008848477729 -6.768815138122773 1 0 0
412 1 -6.452147015123202 -9.949559565141673 -6.611172345923077 0 0 0
613 1 18.221933965136213 -10.220637078246432 -5.870268913071761 0 -1 0
1045 1 2.12039524748355 -9.945108651353173 -6.204420558455187 0 1 1
929 1 -18.686934812485298 -7.190699136552231 -8.382716473044228 0 0 1
105 1 11.962639657345125 -9.678361687750442 -6.677017969489693 -1 1 0
901 2 -16.021421533636097 -6.590169517956789 -5.631756114638626 0 1 1
354 1 7.701845251834567 -2.0921170397344255 -6.2385332811231144 0 0 0
669 1 -14.114998343904261 1.2570696953929152 -5.424183444386472 1 -1 0
419 2 14.7047898090866 -2.7302403054312205 -6.166213868194326 0 0 0
318 1 14.714480044844882 3.3921640763974716 -7.321686575190472 -1 0 0
351 2 -8.388544920871844 2.746028012028946 -8.637488525294579 0 0 0
572 1 1.0309032431115668 2.8053825160072816 -7.268341472038979 0 0 0
341 1 14.430576751951609 4.421994911005663 -4.732200964649822 0 0 0
120 1 -13.440705161081855 8.196469675065623 -6.852758736317744 1 -1 -1
950 1 3.6658933704507968 8.053126911779717 -8.14749362202781 0 0 1
685 2 -11.683158078570491 9.897333741596707 -5.312565244234946 0 0 0
401 1 -10.198991268973476 9.615696902681997 -6.733051390957628 0 0 0
709 1 12.478616208627635 13.408745848838663 -7.776270716993396 0 -1 1
748 1 12.452186330671301 12.404450701855204 -7.023345165998628 0 -1 0
856 1 -17.923458867382536 11.25809902192163 -7.05183811554102 0 0 1
990 2 0.1974657232443386 13.454192951551823 -7.5793420363492965 0 -1 1
727 2 3.540020559710545 12.329102342787685 -5.178495298975747 0 0 0
455 1 18.071359018381276 14.885994624067445 -7.793722719077309 -1 0 0
976 1 -3.9694912412081984 13.371317528490946 -7.206786506921895 0 -1 0
374 2 11.407234858729884 15.152113412463605 -7.149528405227341 0 -1 0
382 1 15.560455000627659 15.546409278552002 -7.460230085823724 0 0 0
923 1 -2.341187834201598 15.085594122326565 -5.798780875107578 -1 -1 1
608 1 17.39042168775665 14.707345482262191 -6.545119421666419 -1 -1 0
638 1 11.57448764269045 -19.329555609336055 -5.150395593695107 0 1 0
889 1 18.138658314308582 17.12718082187519 -5.756337051005904 -1 -1 0
690 1 -8.769501842197203 19.041379994274493 -3.8571304918690448 0 0 1
42 1 15.030477086076795 -19.451484937522295 -4.270889267236735 -1 1 0
1012 1 -0.9212706050148941 -18.20104127054951 -3.8066706280692153 0 0 1
737 1 18.149958628152074 -17.57266068765915 -4.574555212763684 0 0 0
10 1 17.8565446047134 -18.394927566127123 -6.815478321603788 0 0 0
583 1 13.83669946913569 -18.864176394536518 -4.500818815791398 0 1 0
1025 1 -2.543340998445912 -16.676603337357324 -4.084477436120519 0 0 0
110 1 -11.20821958471546 -15.081980563465065 -6.031988372872016 0 1 0
836 1 -7.167648032787577 -16.59079275298971 -4.344853254624904 0 1 0
22 1 -7.16001671524478 -13.14452984162286 -5.517790348558024 0 0 0
515 1 18.550697758132426 -14.470589259089646 -5.071065357559889 1 1 0
797 1 -19.61011952614362 -12.024536686313107 -2.951597707284821 1 0 1
1104 2 -8.724310654692973 -8.49377242871544 -4.9831113875701565 1 0 0
188 1 -5.0626284829320864 -10.129022823036578 -4.9557089530380045 0 1 -1
1139 2 -4.041567216434651 -8.769862806333403 -5.665459585270662 0 0 0
192 1 3.7586046307122327 -7.181380910344987 -4.801206537694635 0 1 0
288 1 6.759035046913152 -8.58835278601813 -3.8186744901050194 -1 0 0
988 1 7.52823051821147 -9.007247789499285 -3.262266240324913 0 0 0
388 1 8.545945241581615 -7.279956278000518 -4.25668842674694 0 1 0
776 1 3.696344830389608 -4.391744975278364 -5.7180948331653045 0 0 0
153 1 10.361459434514714 -2.102871500453919 -4.64993777354978 1 0 0
33 1 4.669263120567343 1.3357846555941846 -4.213099007174053 -1 0 0
791 1 15.83224885933014 2.346830370386079 -6.533383498678398 0 1 0
672 1 5.101639087734396 2.9875535434071914 -3.000562481212189 -1 0 1
60 1 13.73703076093052 3.212976066005905 -6.036473489988648 0 0 0
535 1 17.861828213516862 4.865749498733048 -5.512211591568134 0 0 0
195 1 14.152083671427029 5.714853259625973 -4.46541428272386 0 -1 0
761 2 16.424901944119664 5.9077351739620765 -3.642170811278465 -1 -1 0
960 1 -14.539786264559647 9.305841423678036 -5.507879295063346 0 0 0
357 1 -4.690132531117996 8.525539620328527 -8.276431821934246 0 0 0
1020 1 -16.654391120105473 8.079552756493703 -6.001239321912566 1 0 1