LAMMPS data file via write_data, version 2 Aug 2023, timestep = 200000, units = real

1491 atoms
5 atom types
686 bonds
1 bond types
343 angles
1 angle types

-12.120000000000001 12.120000000000001 xlo xhi
-12.120000000000001 12.120000000000001 ylo yhi
-28.28 28.28 zlo zhi

Masses

1 15.9994
2 1.008
3 28.99
4 35.453
5 26.9815

Pair Coeffs # lj/cut/tip4p/long

1 0.185199 3.1589
2 0 0
3 0.0469 2.4299
4 0.15 4.0447
5 11.697 2.574

Bond Coeffs # harmonic

1 0 0.9572

Angle Coeffs # harmonic

1 0 104.52

Atoms # full

478 16 1 -1.1128 -9.022229416663802 -10.091251089454357 -6.7166929089920115 0 0 0
86 0 5 0 -10.905160992623202 -9.919272859281351 -9.075558265947334 0 0 0
484 18 1 -1.1128 -6.721478019383571 -7.938609373789215 -6.60198584942481 0 0 0
451 7 1 -1.1128 -11.151742612571887 -8.063797945004376 -6.1470920857917735 1 0 0
544 38 1 -1.1128 -8.661800642194061 -6.054729776185497 -6.401367802023602 0 0 0
545 38 2 0.5564 -7.949252494829298 -6.693889399631414 -6.400843102820073 0 0 0
452 7 2 0.5564 -11.720293763896384 -7.3366031309402375 -6.400381401502201 1 0 0
453 7 2 0.5564 -10.294090072791978 -7.833601836943568 -6.504432236319485 1 0 0
480 16 2 0.5564 -8.530447316173678 -9.302933470113425 -6.946800456606086 0 0 0
485 18 2 0.5564 -6.5874952566045755 -8.36546092811995 -5.755769426271279 0 0 0
479 16 2 0.5564 -8.393665045246044 -10.636723371257638 -6.24381336365857 0 0 0
546 38 2 0.5564 -8.256535319425321 -5.243802318392463 -6.708610604895405 0 0 0
486 18 2 0.5564 -6.08773147774397 -7.221315030123466 -6.611957506743451 0 0 0
1153 241 1 -1.1128 -6.572540175680529 -3.993265318993465 -6.6912623513208676 0 0 0
1045 205 1 -1.1128 -11.154638494602496 -3.7328061202115648 -6.487251894860701 0 0 0
1154 241 2 0.5564 -5.89105396600071 -4.64313029157987 -6.86302383598845 0 0 0
1155 241 2 0.5564 -6.674160612109673 -3.9979232395058295 -5.7394845017182545 0 0 0
1047 205 2 0.5564 -12.002827323506533 -3.418439117101529 -6.800239887079238 0 0 0
1046 205 2 0.5564 -11.243303028161343 -4.685735872950072 -6.470123026401984 0 0 0
291 0 5 0 -8.917995016805406 -4.055291028170171 -8.97046983609968 0 0 0
100 0 5 0 -6.79037728836829 -5.981656543198046 -8.953375717430616 0 0 0
99 0 5 0 -8.828969415780778 -7.904793466307992 -9.007231176388773 0 0 0
88 0 5 0 -6.897735935474417 -9.951504551267657 -9.00443822024487 0 0 0
98 0 5 0 -10.82138738192693 -6.002707234555989 -9.047525458697958 0 0 0
55 0 5 0 -6.86048460508632 -7.9801515883198 -11.048742362447088 0 0 0
56 0 5 0 -8.894994155151975 -5.987707935847808 -11.052995508448701 0 0 0
219 0 5 0 -10.983947034106045 -3.9694768284302193 -11.033698656243711 0 0 0
223 0 5 0 -6.793297753764431 -3.994170026491919 -10.972363985247556 0 0 0
32 0 5 0 -8.922779136669705 -9.982114491304053 -11.071151711386396 0 0 0
51 0 5 0 -10.894055431741885 -7.994695762006698 -11.136012706309021 0 0 0
30 0 5 0 -6.806414907833031 -10.087762587648532 -12.994858661584082 0 0 0
222 0 5 0 -6.826385565964323 -1.9167674123213043 -13.021017763306363 0 0 0
218 0 5 0 -10.88125681893587 -1.9538588431085806 -13.060451169736336 0 0 0
292 0 5 0 -6.8341381106913435 -1.9553434516938177 -8.900185372224943 0 0 0
221 0 5 0 -8.846960140602029 -3.914493770314982 -12.9226714619445 0 0 0
224 0 5 0 -8.852239407419788 -1.9835093836594722 -10.986182530586797 0 0 0
290 0 5 0 -10.836656469079287 -1.965640189354331 -9.089680659615244 0 0 0
50 0 5 0 -10.86141692976855 -5.988990372001608 -13.146478790908999 0 0 0
54 0 5 0 -6.830071368528939 -5.924513388844324 -13.044648178141268 0 0 0
53 0 5 0 -8.850069117503727 -7.92860033574135 -13.172244493532109 0 0 0
26 0 5 0 -10.86395568578743 -9.896943423214347 -13.244728698675793 0 0 0
36 0 5 0 -4.7542618804751715 -9.968474546970434 -10.935896584782704 0 0 0
481 17 1 -1.1128 -4.811207404406352 -10.177341931364033 -6.6366341741640325 0 0 0
547 39 1 -1.1128 -4.688168060084279 -5.922647401863532 -6.452143831974018 0 0 0
101 0 5 0 -4.8141527462778475 -7.973009951868967 -8.93191894366733 0 0 0
60 0 5 0 -4.863978012300718 -5.9990114608626275 -10.91499169532193 0 0 0
225 0 5 0 -4.860047996817971 -3.956577782039657 -13.042431584976748 0 0 0
57 0 5 0 -4.848217388767435 -8.037921101631323 -13.016268563546864 0 0 0
1048 206 1 -1.1128 -9.076899927113656 -1.9230250333164074 -6.799809144296629 0 0 0
964 178 1 -1.1128 -4.929086494210028 -1.8602542003901312 -6.4749861724826365 0 0 0
228 0 5 0 -4.77620337196953 -1.9945896395330698 -10.981408640005187 0 0 0
293 0 5 0 -4.787090499905211 -3.995463752127988 -8.881738465122694 0 0 0
1050 206 2 0.5564 -9.780321904781559 -2.572148450344404 -6.807047422862871 0 0 0
1049 206 2 0.5564 -9.49697681174277 -1.11074993488142 -7.082593091481776 0 0 0
1390 320 1 -1.1128 -4.68179961575107 -5.834568548126296 -3.0381551777899984 1 0 0
482 17 2 0.5564 -5.441455175847094 -10.829861142074739 -6.331304916577837 0 0 0
1133 234 2 0.5564 -6.424053915218288 -2.820803311664735 -3.704413360449281 0 0 0
1132 234 1 -1.1128 -6.58109991286483 -3.7079091238418105 -4.027857772936416 0 0 0
1134 234 2 0.5564 -7.002884829643582 -4.158868181252518 -3.2964510614717644 0 0 0
641 70 2 0.5564 -7.055340989648925 -9.124658189493493 -3.44992084992607 1 0 0
640 70 1 -1.1128 -6.584961178679908 -9.183278258733012 -4.281502324433474 1 0 0
642 70 2 0.5564 -6.423852239813033 -10.119273838153784 -4.400634892628774 1 0 0
643 71 1 -1.1128 -10.468081122258729 -9.099717589725712 -3.5204095488363203 0 -1 0
645 71 2 0.5564 -10.609163600189884 -8.52089756669586 -4.26960326830965 0 -1 0
966 178 2 0.5564 -5.464344985896013 -1.1725724889435887 -6.078989360775213 0 0 0
718 96 1 -1.1128 -6.5431593294432355 -0.9144232564077345 -3.408463102770529 1 -1 0
644 71 2 0.5564 -10.243269122988481 -8.510136509317686 -2.8006241299222463 0 -1 0
623 64 2 0.5564 -11.312770643851007 -11.242767934957847 -1.6128947943351575 0 0 0
1287 285 2 0.5564 -4.639095100222353 -1.3809354138498455 -2.5452453013397105 1 0 0
1012 194 1 -1.1128 -9.377326918014669 -6.271045107066357 -3.6676476239616913 1 0 0
1013 194 2 0.5564 -9.150492608618467 -6.167779904194844 -4.591834102887807 1 0 0
1316 295 2 0.5564 -6.926375227495935 -5.163571467430063 -1.2938159645671947 1 0 0
1315 295 1 -1.1128 -7.213874202355566 -5.400289361977759 -2.175603262777623 1 0 0
1317 295 2 0.5564 -6.428426722623155 -5.746470925361418 -2.5992539569281257 1 0 0
720 96 2 0.5564 -7.456968784827496 -0.9926178339813512 -3.682418405049784 1 -1 0
1014 194 2 0.5564 -8.712149367028696 -5.766479303510167 -3.1994583547515525 1 0 0
1118 229 2 0.5564 -9.262535706913335 -1.9487285286419325 -4.88205707424214 1 0 0
483 17 2 0.5564 -5.2790664769648155 -9.691034128120842 -7.31547965929935 0 0 0
900 156 2 0.5564 -7.462470381700568 -0.9273148207295611 -6.593558620521661 0 0 0
512 27 2 0.5564 -9.247635081389399 -10.706575344695597 -3.391781234243002 1 0 0
819 129 2 0.5564 -11.089316778157215 -3.6263724305632845 -2.1679833222814806 1 0 0
511 27 1 -1.1128 -8.535431952657571 -11.246682801669968 -3.0493429018174134 1 0 0
540 36 2 0.5564 -4.884210062647221 -8.70594822673906 -4.16461668239747 0 0 0
817 129 1 -1.1128 -10.51895443590251 -3.0040719304594155 -1.7167082686644237 1 0 0
818 129 2 0.5564 -10.995457698294633 -2.1745520403541416 -1.7492888823956028 1 0 0
543 37 2 0.5564 -10.332688891170175 -11.467600529258364 -6.427337658401599 0 0 0
1061 210 2 0.5564 -10.860491327006246 -5.196189807053878 -3.4810391539174326 2 0 0
1117 229 1 -1.1128 -9.101600778297495 -1.6499761196442422 -3.9870286863401834 1 0 0
965 178 2 0.5564 -5.563063419539 -2.479184641341999 -6.837220280977198 0 0 0
1119 229 2 0.5564 -9.26619442781203 -2.4205478829877207 -3.4435613180951155 1 0 0
1105 225 1 -1.1128 1.3333083442633622 -0.8685854488265481 -3.9034946276900997 0 0 0
1199 256 2 0.5564 -10.622778407730827 -0.5420724500335922 -3.6247986950680096 1 0 0
519 29 2 0.5564 9.67287993356598 -12.084885616790872 -5.46042193295669 -1 0 0
574 48 1 -1.1128 -9.856467574087548 -7.630114952832977 -1.2547005623940135 1 -1 0
1077 215 2 0.5564 -7.14843436534134 -9.949773086574938 -0.8893973853933704 1 0 0
1136 235 2 0.5564 -4.761557740557251 -9.21720026571398 -0.9609923276255976 1 0 0
1392 320 2 0.5564 -4.353371558076919 -6.649104307514455 -3.4188187967105392 1 0 0
1203 257 2 0.5564 -8.94651305582927 -0.6410571987904775 -0.6991185643007394 1 0 0
1135 235 1 -1.1128 -4.603227418881303 -10.135239075278056 -0.7410737968766782 1 0 0
1076 215 2 0.5564 -8.245357886776395 -8.927532875470328 -1.0983944130039613 1 0 0
1416 328 2 0.5564 4.034896066633083 -8.17108449827739 -0.33916803172980503 1 0 0
1098 222 2 0.5564 11.010194608020463 -4.100326316025977 -0.8785925792857942 1 0 0
1391 320 2 0.5564 -4.994336490222071 -5.32818277063464 -3.7879003750254436 1 0 0
27 0 5 0 -10.990333950706836 -11.957055842006715 -11.01306249400764 0 0 0
548 39 2 0.5564 -4.038147190585076 -6.619010553684643 -6.54593712698418 0 0 0
95 0 5 0 7.354975747042035 -12.103248290089372 -9.031006394372973 0 0 0
257 0 5 0 3.208784124335675 -0.04520351860428163 -13.087072199274528 0 0 0
458 9 2 0.5564 11.830902867774292 -10.898110683704353 -6.4035710659853535 -1 0 0
1131 233 2 0.5564 10.774768350510994 -8.111499057264838 -0.36205899346617265 0 0 0
31 0 5 0 -6.870761781728223 -12.023378921002104 -11.020667080941942 0 0 0
1075 215 1 -1.1128 -7.30635402917225 -9.066186441977592 -1.2219202585895603 1 0 0
1286 285 2 0.5564 -4.0332502793516465 -1.9796198835768444 -1.2936770672745013 1 0 0
45 0 5 0 7.305333211489495 -12.008517471181067 -12.983214684247795 0 0 0
549 39 2 0.5564 -4.171073276254212 -5.1272457631203245 -6.3248868935742495 0 0 0
617 62 2 0.5564 -1.8686680984139428 -0.5088824709039714 -3.7353935182236273 1 0 0
575 48 2 0.5564 -10.427013244995345 -8.049757318280028 -0.6108073429610641 1 -1 0
1060 210 1 -1.1128 -11.615518140283662 -4.608031760782914 -3.496972151163998 2 0 0
1244 271 2 0.5564 8.39260342794484 -9.779393938121 -0.738389491981973 0 0 0
1302 290 2 0.5564 11.04580956028684 -2.2242846850565248 -0.07084220506604474 0 0 0
1478 0 4 -1.1 -6.928118163108356 -12.073098227078473 -5.40762261391252 0 0 0
459 9 2 0.5564 12.117248826843557 -9.421533856101156 -6.575682281214054 -1 0 0
29 0 5 0 -8.991149531877307 -12.041710621792378 -13.015890950850535 0 0 0
1062 210 2 0.5564 11.86567770003806 -5.19149219173969 -3.494785046840863 1 0 0
940 170 1 -1.1128 7.827985290954179 -6.84357134027002 -2.619018629192252 0 0 0
898 156 1 -1.1128 -6.931596234795376 -0.15146983092419272 -6.413404974787405 0 0 0
25 0 5 0 11.322099484362802 -12.004687183142108 -13.068954267652499 -1 0 0
1137 235 2 0.5564 -4.420880007488159 -10.555363564406818 -1.5815984469153528 1 0 0
576 48 2 0.5564 -9.783847090949344 -6.723526610128598 -0.9562753169266349 1 -1 0
555 41 2 0.5564 11.103673939588909 -11.545995896304023 -0.3418939452319006 0 0 0
37 0 5 0 -0.7648385778870904 -12.001661344777414 -12.979782934027781 0 0 0
830 133 2 0.5564 0.4452293809351969 -11.014731246090374 -4.248063435635707 1 0 0
1285 285 1 -1.1128 -3.8887449493106385 -1.8881111603932852 -2.2354695065525996 1 0 0
539 36 2 0.5564 -3.780954108422239 -7.980367238552136 -4.905061628614378 0 0 0
94 0 5 0 5.26729774877441 -10.006672952804198 -9.03328966921772 0 0 0
622 64 1 -1.1128 -11.995911241943558 -11.868057676354493 -1.8549277747667519 0 0 0
538 36 1 -1.1128 -4.1083738570957244 -8.163156891947526 -4.0243654119635455 0 0 0
528 32 2 0.5564 -3.4857752232303825 -11.152103502658903 -6.298967916106901 0 0 0
999 189 2 0.5564 -2.889380805226476 -5.080387925006918 -0.3718528464124919 1 0 0
998 189 2 0.5564 -3.543078460301533 -5.1541495324692255 -1.7353520580660466 1 0 0
997 189 1 -1.1128 -2.9624933204299055 -4.610660362844221 -1.2026621366978625 1 0 0
1085 218 2 0.5564 -0.4835340027535319 -6.9350407241323975 -0.1920318468147317 0 0 0
774 114 2 0.5564 -2.92075748815952 -9.534050165619107 -3.516042241107981 -1 0 0
1106 225 2 0.5564 0.38514427202229307 -0.8332823500036292 -3.777208630498865 0 0 0
773 114 2 0.5564 -1.4885524431776385 -10.023588598291855 -3.5482413202483447 -1 0 0
978 182 2 0.5564 3.694971932919331 -2.5356957772062176 -2.4285953762002777 1 0 0
772 114 1 -1.1128 -2.3448725233830934 -10.213171571468715 -3.1648020573228055 -1 0 0
1084 218 1 -1.1128 -0.8656879813469034 -7.4385609187361235 -0.9108274355945734 0 0 0
1468 0 3 1.1 -1.881381588576097 -2.875225369394444 -2.487573825818342 1 0 0
618 62 2 0.5564 -1.2365465166703076 -1.3316348434532137 -4.837844847709244 1 0 0
616 62 1 -1.1128 -1.3152298600380057 -1.2752893152432714 -3.8855478025979253 1 0 0
1086 218 2 0.5564 -1.4466107544991693 -8.06665103325314 -0.4815818579090759 0 0 0
1053 207 2 0.5564 -1.813077717876728 -5.569377728762246 -3.6437398272684223 0 0 0
93 0 5 0 3.242500786591548 -12.024537665019396 -9.124860859522661 0 0 0
711 93 2 0.5564 1.4140934520033996 -9.644413674896013 -1.0605193446577945 1 0 0
710 93 2 0.5564 0.4203864996786417 -8.648431243358642 -1.619499642792948 1 0 0
709 93 1 -1.1128 1.252388285645322 -9.079068082002154 -1.8158148573024506 1 0 0
903 157 2 0.5564 -3.3118554387720085 -0.7126592015668363 -6.66672609405784 0 0 0
1229 266 2 0.5564 2.8142154956685 -3.769569650709465 -4.5134946984089 1 0 0
1103 224 2 0.5564 1.7604940572248904 -6.3567174522920125 -3.341365911106453 1 0 0
1102 224 1 -1.1128 1.632695032323603 -6.741768155160359 -4.208336915124032 1 0 0
1290 286 2 0.5564 -1.0621423713129337 -7.322434785109673 -2.6993435095303617 1 0 0
1160 243 2 0.5564 3.2068483761059827 -9.944029718274287 -3.0064412139877636 1 0 0
1230 266 2 0.5564 1.8499641080358489 -4.113379882299431 -3.3981848865063107 1 0 0
1289 286 2 0.5564 -0.5354517542819979 -6.96442830209025 -4.0727798044150765 1 0 0
1288 286 1 -1.1128 -1.2953116232180544 -7.339449785539529 -3.627557088287797 1 0 0
1052 207 2 0.5564 -2.202815710625606 -4.525283601208169 -4.668370803687724 0 0 0
908 159 2 0.5564 1.9519515479846952 -0.5612202829969071 -6.793838701347509 0 0 0
1051 207 1 -1.1128 -1.5758548315555136 -4.700027512514495 -3.9665138205603547 0 0 0
1332 300 2 0.5564 3.0387860905241233 -5.5241409730676425 -1.832135316490598 1 0 0
1330 300 1 -1.1128 2.1587555101501725 -5.15441071876839 -1.9035432129917407 1 0 0
887 152 2 0.5564 0.11733293081775124 -2.7617922026422494 -6.535476379021229 0 0 0
62 0 5 0 1.2372017052973785 -5.993519611419012 -13.07787816787449 0 0 0
294 0 5 0 -2.835179038115803 -1.9836954689447905 -8.94502720965955 0 0 0
64 0 5 0 -0.8130615271818743 -5.953244790756703 -10.932202924532778 0 0 0
59 0 5 0 -2.725373795435917 -8.095631367002776 -10.901197605817526 0 0 0
232 0 5 0 -0.8022829313513349 -1.9818791934977085 -11.02558339668041 0 0 0
885 151 2 0.5564 -2.1064641010452814 -3.293616296936362 -6.322396604757597 0 0 0
889 153 1 -1.1128 1.1017371535785307 -4.120032710788404 -6.531344031371013 0 0 0
883 151 1 -1.1128 -2.911933450853653 -3.713292004048411 -6.020169318977539 0 0 0
884 151 2 0.5564 -3.569518314034117 -3.0182729093075307 -6.047524377520971 0 0 0
1058 209 2 0.5564 1.4635455283707017 -7.833763842179023 -5.533983008706848 0 0 0
530 33 2 0.5564 -0.30786834591826917 -9.745814651259773 -5.560333341786629 0 0 0
969 179 2 0.5564 -2.2491310829899116 -8.603487133526231 -6.463385155710263 0 0 0
531 33 2 0.5564 -0.44925846661872115 -9.203219511322013 -6.966567867400844 0 0 0
551 40 2 0.5564 0.14067199238456674 -6.876799252453448 -6.567956319123797 0 0 0
968 179 2 0.5564 -2.0033543124162994 -7.117202579965412 -6.613206780631559 0 0 0
967 179 1 -1.1128 -2.704339018724286 -7.765163129515159 -6.542391777728714 0 0 0
529 33 1 -1.1128 -0.8717574183365314 -9.783066409705535 -6.332917920293274 0 0 0
550 40 1 -1.1128 -0.5722608565880296 -6.239208494277591 -6.529815975328797 0 0 0
1059 209 2 0.5564 2.074837438567182 -7.388093578444979 -6.845317035057289 0 0 0
1057 209 1 -1.1128 1.4477995276324205 -8.00923031210517 -6.474831528138261 0 0 0
890 153 2 0.5564 1.9523709886738405 -4.500085185001716 -6.750967263104549 0 0 0
552 40 2 0.5564 -0.1453248607583317 -5.393403180456663 -6.666131445011087 0 0 0
295 0 5 0 -0.774410278093257 -3.9586470545459944 -8.908671886715297 0 0 0
891 153 2 0.5564 1.2154086972759373 -3.7723822732571803 -5.646780367149648 0 0 0
102 0 5 0 -2.8365585208408266 -5.9830185775926505 -8.94309843786353 0 0 0
104 0 5 0 1.2699194823165318 -5.982273329652114 -8.93208229012268 0 0 0
103 0 5 0 -0.8051757398056038 -7.986862468323063 -8.850556393647144 0 0 0
90 0 5 0 -2.7612417454976317 -10.080181279661005 -8.91778348556442 0 0 0
92 0 5 0 1.2792636082964046 -10.00018173474391 -8.898245943681673 0 0 0
63 0 5 0 1.293362910952281 -8.001921307025713 -11.009130294399535 0 0 0
34 0 5 0 -2.8262256270665986 -9.994822207390751 -12.960151442790439 0 0 0
227 0 5 0 -2.8289883338364006 -3.9505725217550904 -10.964114850208482 0 0 0
231 0 5 0 1.2085997807210305 -3.9895122761419572 -10.96033728102188 0 0 0
40 0 5 0 -0.718191677277989 -10.085517138942183 -10.938897016359617 0 0 0
296 0 5 0 1.2150297950429014 -2.030964653348437 -8.994053413569125 0 0 0
886 152 1 -1.1128 -0.49255539909084 -2.024941966396266 -6.49895244979203 0 0 0
888 152 2 0.5564 0.03986626064907988 -1.2614545714917695 -6.722241925349814 0 0 0
38 0 5 0 1.366033324822838 -10.022144220502543 -13.041888074377516 0 0 0
58 0 5 0 -2.806899982205379 -6.006288517890786 -12.893093015264673 0 0 0
230 0 5 0 1.157027047779331 -2.0528254933817496 -13.026691343491388 0 0 0
61 0 5 0 -0.7772425806722757 -8.072693728137628 -13.024677920803043 0 0 0
226 0 5 0 -2.8201970024417986 -1.9509236044995937 -13.045629849988456 0 0 0
229 0 5 0 -0.8357815448130113 -4.044394044087753 -12.9531349866692 0 0 0
65 0 5 0 3.3157701372507975 -7.9189050070037075 -13.037820924246295 0 0 0
297 0 5 0 3.26005280568969 -3.953836282297898 -8.969853179823463 0 0 0
233 0 5 0 3.3040066246092645 -3.9832795456710337 -13.053429574800468 0 0 0
236 0 5 0 3.1879613533751368 -1.9481545330142884 -11.012071197980466 0 0 0
44 0 5 0 3.341281940319633 -9.969732517424935 -11.060192732414452 0 0 0
68 0 5 0 3.232645132772856 -5.9764212448607115 -10.995208330367594 0 0 0
472 14 1 -1.1128 3.216101360507214 -10.154460607479633 -6.201656706961871 0 0 0
105 0 5 0 3.2793379415787416 -7.946612800907336 -8.915654092917466 0 0 0
490 20 1 -1.1128 3.4626755853420303 -1.887364276377249 -6.55995504710551 0 0 0
487 19 1 -1.1128 3.3464271713936835 -6.02195192472728 -6.591470287123705 0 0 0
473 14 2 0.5564 2.6598014821228992 -9.479804502609705 -6.591001362526143 0 0 0
1228 266 1 -1.1128 2.0573108428269653 -3.430231457808424 -4.035792680972827 1 0 0
1104 224 2 0.5564 1.997606080020681 -6.096346350050935 -4.813738083941332 1 0 0
1331 300 2 0.5564 2.0476364219248717 -4.642842207163576 -1.1021817186415976 1 0 0
489 19 2 0.5564 3.8191179786958127 -5.235197635377339 -6.319767214227892 0 0 0
831 133 2 0.5564 0.9914888147023729 -9.967848644989145 -3.300682782706755 1 0 0
474 14 2 0.5564 2.9983924535030027 -10.13665955689163 -5.269716318990629 0 0 0
1139 236 2 0.5564 -3.6752745428134386 -3.3389569404146857 -0.19733156831208046 1 0 0
515 28 2 0.5564 1.5645666429890375 -1.0739434601746556 -1.2108975562759154 1 -1 0
527 32 2 0.5564 -1.985198173213221 -11.21814507339337 -6.109756013705753 0 0 0
492 20 2 0.5564 4.0039015648755045 -2.4767074632149924 -6.034604038383587 0 0 0
491 20 2 0.5564 4.058846874349807 -1.187380502534188 -6.826129653684383 0 0 0
87 0 5 0 -8.948430829284145 -11.956919369807629 -9.091724397928388 0 0 0
1415 328 2 0.5564 2.678253366612713 -7.81634353427309 -0.9097640783021155 1 0 0
85 0 5 0 11.275893364014502 -11.947493404747354 -8.935430823351311 -1 0 0
447 5 2 0.5564 1.7557607438452105 -11.442553051246632 -6.639757899361039 0 0 0
1107 225 2 0.5564 1.5602365697482206 -1.7876495528157916 -3.7618549165765542 0 0 0
516 28 2 0.5564 2.106644305460241 -0.2500933187367405 -2.359512622461774 1 -1 0
514 28 1 -1.1128 2.300583815833942 -0.5151718169279562 -1.4604306056923306 1 -1 0
829 133 1 -1.1128 0.7888891088263882 -10.121693804480874 -4.223461814445472 1 0 0
488 19 2 0.5564 4.0296090736455215 -6.679951202352878 -6.72011407388571 0 0 0
66 0 5 0 5.335440250408184 -5.97859455048146 -13.043319088451122 0 0 0
47 0 5 0 9.347213941720705 -12.100176603720543 -11.034498094648269 0 0 0
457 9 1 -1.1128 11.432888259815428 -10.079297122369777 -6.69915425424245 -1 0 0
1157 242 2 0.5564 7.662257910427266 -1.9623624524620682 -0.9646179295905495 0 0 0
1198 256 1 -1.1128 -11.406165674999082 -0.10248795686029898 -3.2941598377596826 1 0 0
1414 328 1 -1.1128 3.173315502378016 -7.836073380535637 -0.09077302205679717 1 0 0
1487 0 4 -1.1 -0.32354743990256746 -2.3029372576749494 -0.6510498188723909 1 0 0
33 0 5 0 -4.800844652821752 -12.056801901137195 -12.956076767844923 0 0 0
796 122 1 -1.1128 10.729125647794463 -6.271189920804723 -3.9215598155082403 0 0 0
834 134 2 0.5564 11.945209275222133 -9.303579730423865 -3.632556863725914 0 0 0
434 1 2 0.5564 8.650391554307772 -8.835153273443986 -6.60513271189365 -1 0 0
1021 197 1 -1.1128 5.889763625572359 -8.365303445029241 -0.1965733608663948 0 1 0
35 0 5 0 -2.8053716886129547 -12.059302920174149 -10.998978925935434 0 0 0
526 32 1 -1.1128 -2.780150637114285 -11.747583912257488 -6.0465537635490065 0 0 0
984 184 2 0.5564 11.426286561997305 -1.8042121998583547 -5.5469353242635995 -1 0 0
682 84 1 -1.1128 4.821849447008063 -5.834597164796699 -2.7141077740261776 1 0 0
235 0 5 0 5.246401145854578 -3.9601133230349896 -11.05974355574984 0 0 0
983 184 2 0.5564 11.841405620524732 -1.0136843298062836 -6.769488929187597 -1 0 0
533 34 2 0.5564 5.916709510970263 -5.072146578625586 -0.1643549046201807 1 0 0
1129 233 1 -1.1128 10.583288682029613 -7.726840123139658 -1.2174005101781793 0 0 0
797 122 2 0.5564 9.790773908865198 -6.290590502952022 -3.7335960065437197 0 0 0
1216 262 1 -1.1128 5.47464838533724 -8.2377882443232 -3.862257914104481 0 0 0
48 0 5 0 7.249562809209461 -10.033980035575135 -10.959661522484165 0 0 0
495 21 2 0.5564 10.074196734134576 -4.616727792027655 -6.954994018757592 0 0 0
1130 233 2 0.5564 10.81613147204848 -6.803227626135957 -1.122725471379949 0 0 0
1096 222 1 -1.1128 10.89257544037326 -5.023688115362763 -0.6554267890564568 1 0 0
435 1 2 0.5564 10.121649675524067 -8.518318216182925 -6.441086324695012 -1 0 0
977 182 2 0.5564 4.932181508699 -2.9696115032837453 -3.1855153983660918 1 0 0
1243 271 1 -1.1128 7.872560263865465 -9.552651780114514 -1.5093553584692283 0 0 0
861 143 2 0.5564 4.35633847580729 -1.3444642605636536 -0.5864065870962942 1 0 0
46 0 5 0 9.214565478596212 -9.971760925052468 -13.085646269082707 0 0 0
70 0 5 0 9.29827187871335 -5.950151656881354 -13.174837194262322 0 0 0
1266 278 2 0.5564 10.618277882043675 -10.717162481356599 -3.6999774013575975 1 0 0
299 0 5 0 7.281759183554833 -3.8684416190672724 -9.025730041762635 0 0 0
976 182 1 -1.1128 4.59917374600529 -2.2801171519896455 -2.6111076721747146 1 0 0
28 0 5 0 11.262845684253438 -9.936189604289746 -11.093021315818929 -1 0 0
1264 278 1 -1.1128 10.246840228567239 -11.599360187510316 -3.700273159325567 1 0 0
1477 0 4 -1.1 5.0297046767676745 -4.097969918338583 -5.192238148837065 0 0 0
1022 197 2 0.5564 6.4162158016083115 -8.824290530406888 -0.8511128036063629 0 1 0
833 134 2 0.5564 10.843934151758987 -8.801676270448672 -2.7230627533045437 0 0 0
798 122 2 0.5564 10.998771653134092 -7.189163349799704 -3.892346800186172 0 0 0
662 77 2 0.5564 5.75184411378199 -11.263391041088877 -0.9411679058086275 1 0 0
761 110 2 0.5564 -9.758586224717673 -3.2157825016990453 -0.10294616757898457 1 -1 0
475 15 1 -1.1128 7.021214329726476 -9.861029668786793 -6.510856017092645 -1 0 0
599 56 2 0.5564 11.451762598470737 -2.015031733086715 -3.331193380509538 0 -1 0
534 34 2 0.5564 6.756268503851078 -3.888847001546582 -0.596602307301344 1 0 0
49 0 5 0 11.19814957116153 -8.017156977879225 -13.063059672470322 -1 0 0
1159 243 1 -1.1128 3.980333505496056 -10.335161338309089 -3.4125808293714797 1 0 0
1161 243 2 0.5564 4.5636654441013285 -9.594954176956172 -3.580105852819856 1 0 0
300 0 5 0 9.345017715067918 -1.9461049576364275 -9.01568240208731 0 0 0
1218 262 2 0.5564 5.114892078215985 -7.41482159275205 -3.531311868195923 0 0 0
1301 290 2 0.5564 10.385150180065091 -1.41020722667065 -1.1629524381509364 0 0 0
832 134 1 -1.1128 11.02834305058414 -9.028613766879392 -3.6345011527431215 0 0 0
600 56 2 0.5564 11.129050946808276 -3.275140892023651 -4.105711197618666 0 -1 0
433 1 1 -1.1128 9.26985560109865 -8.105739416635824 -6.584187553707119 -1 0 0
220 0 5 0 11.368594295282916 -2.0328681685145233 -11.041926275067658 -1 0 0
493 21 1 -1.1128 9.458399777373506 -3.9052606228833158 -6.779339408062203 0 0 0
466 12 1 -1.1128 5.458192924967396 -7.824467773643549 -6.678920212942676 0 0 0
69 0 5 0 7.259992640055072 -7.898890508679157 -13.07165646807169 0 0 0
1217 262 2 0.5564 6.419930001035545 -8.154045723032153 -3.7370265499445807 0 0 0
1334 301 2 0.5564 5.42833953306057 -0.6745749474317925 -3.253592018845815 1 0 0
683 84 2 0.5564 5.571606215615854 -5.524120863281741 -2.206447567838745 1 0 0
71 0 5 0 9.208971149989956 -7.944124486412312 -11.03867350294081 0 0 0
790 120 1 -1.1128 8.229448196558689 -3.2740309153217457 -3.5772001123621338 0 0 0
1462 0 3 1.1 7.437810123289193 -3.9303768753017976 -5.74503084450992 0 0 0
661 77 1 -1.1128 4.831580907167727 -11.454182505710607 -1.1227347054880474 1 0 0
465 11 2 0.5564 4.625650335743555 -11.51402026858708 -6.449693109529204 0 0 0
684 84 2 0.5564 4.938093907985311 -5.441110825606214 -3.5789144799007757 1 0 0
108 0 5 0 9.326352167174024 -5.891430376665335 -9.04972176450461 0 0 0
42 0 5 0 5.322846735518859 -10.032607715620363 -13.001805786193417 0 0 0
468 12 2 0.5564 5.527821880877934 -7.608342806839316 -5.749040952474026 0 0 0
557 42 2 0.5564 10.018545895912233 -0.5230764552052621 -6.4136319480819655 0 0 0
240 0 5 0 7.321481439445579 -1.9427104178543497 -11.03863660549417 0 0 0
963 177 2 0.5564 11.285314569158478 -5.9958872706361195 -5.609338722589806 -1 0 0
234 0 5 0 5.273966557288724 -1.9509876449072334 -13.157773952303263 0 0 0
96 0 5 0 9.279626556255213 -10.015829177905427 -9.032471979934636 0 0 0
791 120 2 0.5564 8.105360004391848 -3.8531587321106175 -2.825241476845505 0 0 0
52 0 5 0 11.311753415557524 -6.032761049419532 -11.058530299750043 -1 0 0
962 177 2 0.5564 10.739084527150016 -6.693096629714104 -6.837113003266408 -1 0 0
1300 290 1 -1.1128 10.694715389618331 -2.2926355196125425 -0.9587055977491267 0 0 0
467 12 2 0.5564 5.907237358206715 -8.665506743489143 -6.764099214240228 0 0 0
913 161 1 -1.1128 7.394151586861009 -1.8314406231534686 -6.68119935447172 0 0 0
982 184 1 -1.1128 11.248198503721078 -1.7079328633366107 -6.482484216288272 -1 0 0
914 161 2 0.5564 6.613317995268838 -1.2797035758844988 -6.635388675166758 0 0 0
792 120 2 0.5564 9.095750298713357 -2.889446929736161 -3.443528851897313 0 0 0
298 0 5 0 5.201237994790828 -1.9568773623678979 -9.064677859862368 0 0 0
518 29 2 0.5564 9.831619707160584 -11.616626044611012 -6.891306420192191 -1 0 0
289 0 5 0 11.352325956112736 -3.9243064038072255 -8.984996742824567 -1 0 0
470 13 2 0.5564 8.165066741527198 -6.830154291138961 -6.600712925458345 0 0 0
106 0 5 0 5.3434575515796725 -5.879667785901557 -9.045013130092933 0 0 0
663 77 2 0.5564 4.6643969523064746 -11.044167628504002 -1.97136057680634 1 0 0
494 21 2 0.5564 10.013416893476613 -3.1461091896475866 -6.600758976738542 0 0 0
942 170 2 0.5564 7.689118751014436 -6.385499926761374 -1.7900943031487462 0 0 0
217 0 5 0 11.283190602946728 -3.9589634602903443 -13.056310431768816 -1 0 0
532 34 1 -1.1128 6.588865703200613 -4.810478007560838 -0.7936012096642794 1 0 0
1156 242 1 -1.1128 7.375533137753248 -2.3309920303748015 -0.12907026197604837 0 0 0
626 65 2 0.5564 6.970681853515114 -11.595158419205658 -3.715190188562436 0 0 0
915 161 2 0.5564 8.125858111321762 -1.2156917249288548 -6.639871179501638 0 0 0
1245 271 2 0.5564 8.22982196475054 -10.099429263610107 -2.2090959877815646 0 0 0
476 15 2 0.5564 7.30394669614455 -9.717352151300773 -5.607718778075902 -1 0 0
598 56 1 -1.1128 10.846410930471881 -2.3689177094814533 -3.9827763519406716 0 -1 0
627 65 2 0.5564 8.431996657631432 -11.329091078879179 -4.007877426261841 0 0 0
67 0 5 0 5.298869081461303 -7.914313569904605 -10.988235176868658 0 0 0
477 15 2 0.5564 6.703076525580893 -10.763742489574222 -6.52200280906905 -1 0 0
471 13 2 0.5564 6.684619795564352 -6.563128071657349 -6.770619181287027 0 0 0
941 170 2 0.5564 8.197199952503546 -7.689866906825038 -2.366616090372696 0 0 0
239 0 5 0 9.292780370277313 -3.9638350025237523 -11.040931259226474 0 0 0
961 177 1 -1.1128 11.406838599137645 -6.067520319800079 -6.5560855226848584 -1 0 0
469 13 1 -1.1128 7.516531615715198 -6.126240418481288 -6.588238037192164 0 0 0
72 0 5 0 7.280071369482954 -5.888287066992159 -11.044093549300637 0 0 0
107 0 5 0 7.299086372709547 -7.902440016111969 -9.057304931999855 0 0 0
237 0 5 0 7.297156139605591 -3.8819833767728618 -12.974169141987955 0 0 0
97 0 5 0 11.290598344593576 -7.987940342498323 -8.990409194414477 -1 0 0
238 0 5 0 9.4015450716572 -1.9631044654795744 -13.075674549103036 0 0 0
625 65 1 -1.1128 7.5952147116520115 -10.885963395766238 -3.867571683520733 0 0 0
513 27 2 0.5564 -8.04041811117612 -11.510929870534609 -3.8248276902029215 1 0 0
39 0 5 0 1.2020420139775887 -12.021655880838182 -11.006416810342857 0 0 0
89 0 5 0 -4.8447545038322 -12.056607165619733 -8.959658835473665 0 0 0
301 0 5 0 11.450797426703105 -0.030199934549037393 -9.063607117988344 -1 0 0
311 0 5 0 7.3019405214680635 -0.02423494103916534 -9.030894557315925 0 0 0
1043 204 2 0.5564 3.5276088096296347 -11.022101694208027 -0.09364955374211721 0 0 0
1201 257 1 -1.1128 -9.618310244492585 -0.5754204160229042 -0.020422448407543786 1 0 0
783 117 2 0.5564 -6.518499020869657 -7.939043585924053 -0.10975654030143249 2 0 0
687 85 2 0.5564 -8.550423364227147 -9.08677000596553 6.779437182299146 0 0 0
685 85 1 -1.1128 -8.024178177703229 -8.288966445351564 6.832307773807664 0 0 0
686 85 2 0.5564 -8.665762527455401 -7.578771052314379 6.8467508886248165 0 0 0
850 140 1 -1.1128 -7.4560629011230555 -4.4423162981142434 6.067195105609366 1 0 0
852 140 2 0.5564 -6.946420042623445 -5.226137312813837 6.272458280218601 1 0 0
851 140 2 0.5564 -6.799644594663621 -3.763446155963707 5.910672920484056 1 0 0