LAMMPS data file via write_data, version 30 Jul 2021, timestep = 265000

576 atoms
2 atom types

0.910777522101565 19.67480018949893 xlo xhi
2.1092682236518137 18.476309487947546 ylo yhi
-1.8534900723995857 22.439067783999874 zlo zhi

Masses

1 28.0855
2 15.9994

Atoms # full

236 27 1 1.1 2.451347021829662 3.861894573759743 0.9598463542790157 -1 1 0
440 49 2 -0.55 2.889670417890441 5.138220911438305 0.03642898090482549 0 -1 1
503 56 2 -0.55 4.873172631471213 5.946617196353129 1.5357484127413823 0 -1 1
547 61 2 -0.55 4.2248281309959905 4.512306625380139 3.648574232022817 -1 1 1
349 39 2 -0.55 5.256415633153676 5.763509845664441 -0.8263709613832211 1 0 0
291 33 1 1.1 4.598795516497928 5.937682147199321 3.1043166267480675 0 -1 0
232 26 2 -0.55 3.565387051041033 7.71073568939816 0.08954581092012726 0 0 0
362 41 1 1.1 4.093573627391643 6.1640745757977395 0.1778185477311074 -1 0 0
190 22 1 1.1 6.771187569410877 5.2391211494368015 -0.6778833635034356 0 -1 0
314 35 2 -0.55 5.855903894913175 6.578263950300183 3.811004026272589 1 -1 0
334 38 1 1.1 4.12521741416202 2.94520165007788 3.2479972553751733 0 1 0
487 55 1 1.1 3.8873779969289046 9.131578073907571 -0.7595126393657614 1 0 2
88 10 2 -0.55 3.7006406024722494 3.1457301600003778 1.7133987289167556 1 2 -1
31 4 2 -0.55 3.226857935852113 6.7891457865070395 3.0954774433969465 1 -2 0
514 58 1 1.1 2.298339869486024 7.768412129970818 2.225899685154511 0 0 1
204 23 2 -0.55 6.756105543687144 8.602477624521743 2.3944874612683167 -1 0 0
459 51 2 -0.55 2.388311610423933 9.165143912567093 2.981524985941835 0 1 1
384 43 2 -0.55 1.8787167406765242 2.621300956042677 0.05889906704796477 0 1 0
545 61 2 -0.55 1.4350529088595332 4.432913985909126 2.0711173700205805 -1 0 1
179 20 2 -0.55 1.035675404120223 7.430001494524062 1.4230228266797709 1 0 1
167 19 2 -0.55 2.6299736444343194 9.72043646257975 -1.6143808523072545 0 0 1
398 45 1 1.1 7.121081415871471 7.462156616410374 3.5337170172459738 0 1 0
485 54 2 -0.55 6.890827657392838 3.8584874302487693 0.37261190726549165 0 1 1
392 44 2 -0.55 4.261738487277869 10.285662571194939 0.29762880703742844 0 0 1
467 52 2 -0.55 8.96182825708991 2.3650774518844146 -0.2835034340283855 1 0 1
171 19 2 -0.55 11.825967004100626 2.510127621602639 1.6462890855577523 0 -1 -1
554 62 2 -0.55 7.6410677628823045 6.364506750255721 0.029048043117794853 0 1 1
253 29 1 1.1 7.52783440110824 9.698872195001517 1.550754638037374 -1 -1 1
557 62 2 -0.55 8.41262880912181 6.589727886927337 2.999249137015891 0 1 1
367 41 2 -0.55 8.148894133593062 8.953495274617532 0.3136617360608631 -1 0 1
533 60 1 1.1 10.852008672623125 5.7601397164241 0.3400636941974522 0 1 0
315 35 2 -0.55 10.832559131853294 7.897723921449863 3.00888793338751 0 -1 0
11 2 1 1.1 10.115393029112578 3.105600217781649 -1.161710978261178 0 1 -1
281 32 1 1.1 12.415420600545627 8.202559473064483 3.4099595786804064 0 0 1
22 3 2 -0.55 10.543502358162783 5.517381695361886 1.9560170977762317 -1 0 0
308 35 1 1.1 10.057271621794131 6.5172114393046146 3.1329703329820315 0 1 0
574 64 2 -0.55 10.097196003958166 7.155890991689841 0.08271107337928907 0 1 0
195 22 2 -0.55 12.421850339820198 6.084283070632932 0.0040199100172444435 -1 1 1
129 15 1 1.1 8.619088869802253 7.571015838797437 -0.38673523623964723 0 1 -1
123 14 2 -0.55 10.254640051855686 4.665701306793491 -0.7098239395541024 0 2 0
316 36 1 1.1 12.476571516572058 2.7276760650193044 3.1137941964472597 1 1 1
26 3 2 -0.55 12.944573467692651 9.286565540180113 2.217695056623757 0 0 1
256 29 2 -0.55 13.171129898378476 6.8526794293061375 3.1529463301224334 0 1 1
428 48 2 -0.55 11.595412822313097 2.466792600755661 -0.9346912732876685 0 0 0
532 60 1 1.1 7.562441954930107 2.38641952322573 0.4532799203489164 0 1 0
50 6 2 -0.55 5.896359567074173 10.195350903818941 5.1002719690359815 -1 1 0
401 45 2 -0.55 13.218429262886605 4.203175418270174 3.053263814902258 0 0 1
528 59 2 -0.55 3.860672064847683 3.0884098635918193 10.166924671664805 1 0 1
115 13 2 -0.55 3.058931561702286 2.1684749864491963 4.162487268611558 0 0 -1
124 14 2 -0.55 19.419114013016767 9.580920972836552 0.010440972254288639 -1 1 0
322 36 2 -0.55 15.36136226203091 9.776977686971115 1.881251335369094 -1 0 1
516 58 1 1.1 14.032709121621918 6.410537222004341 -0.12440514629656962 -1 0 0
403 45 2 -0.55 14.35479417429853 7.833141438243981 0.5481743365276466 -2 1 0
63 7 2 -0.55 16.27153318667928 3.297557929579293 1.5951149605311512 1 0 -1
48 6 1 1.1 13.79121417895751 5.492655677783919 3.75462246280519 -1 0 0
189 21 2 -0.55 18.648679945061176 7.235392139796379 -0.9253704925704886 -1 0 -1
83 10 1 1.1 18.82594460331174 8.153813883855523 0.4118680753568462 -2 1 0
102 12 1 1.1 19.025558884737947 4.365246746086515 3.167225840894683 0 1 -1
551 62 1 1.1 16.703943423809324 9.067834341028448 2.3666061553211772 -1 0 1
378 42 2 -0.55 17.36052791237162 8.449422409353865 1.0255098053339933 -2 0 1
513 57 2 -0.55 16.319034303487584 3.756086053084143 -0.8771605628762311 0 0 0
214 24 2 -0.55 17.915937346208835 5.525726903162374 2.9868234085312535 0 0 0
217 25 1 1.1 15.334316681705973 3.767579460073175 0.43992156011465067 -1 0 0
297 33 2 -0.55 14.725999790647329 5.270302753639047 0.6952105474636778 -1 -1 1
344 39 1 1.1 14.071663761287095 9.400666240734797 1.0585188411235031 0 0 0
449 50 2 -0.55 16.491194384723286 7.848597567018596 3.366125601094274 -1 -2 0
245 28 1 1.1 16.7717288175753 6.35902480709516 3.8372177747114034 0 0 0
43 5 2 -0.55 14.0198070467979 2.8268382696899708 0.2901606149073648 -1 0 -1
286 32 2 -0.55 18.363795953992373 2.895880814561356 2.86952406995234 -1 0 0
86 10 2 -0.55 15.391516874137647 5.538992370038687 3.845337869645575 -1 0 0
419 47 2 -0.55 14.41525252795081 6.487983206747175 -1.6705430041120681 -1 0 1
154 18 1 1.1 16.93903291266375 2.1586885906680915 2.52281546757175 -2 -1 0
477 53 2 -0.55 17.682370511880514 10.146692708655532 3.036247529348782 0 0 0
260 29 2 -0.55 14.892357487404771 2.9708902804061705 6.077615619505088 -2 2 1
383 43 2 -0.55 1.4748582157364059 4.15886746239368 9.77819157698513 1 0 0
540 60 2 -0.55 5.852338138164283 2.437798076992182 8.744861318582704 1 2 0
306 34 2 -0.55 2.9352094779129443 9.965226957839029 8.936827584452072 0 -1 -1
178 20 2 -0.55 2.9509481572711316 8.425898524713528 5.423203507655106 0 0 -1
396 44 2 -0.55 2.7195245764261724 7.517583362441157 7.966706268762406 1 0 0
386 43 2 -0.55 5.035073117923042 7.883560954656622 6.814380630488383 1 2 -1
371 42 1 1.1 3.5409725593597554 7.463329614366249 6.6061938859029095 0 0 0
529 59 2 -0.55 3.5812048143308166 5.882968946467683 6.174776159691856 0 0 1
184 21 2 -0.55 4.806582312398434 4.663376004855962 8.258920459819164 -1 1 1
476 53 2 -0.55 5.668463060398102 4.2588363977323045 5.821213420737981 -1 0 1
352 40 1 1.1 4.321075571559527 4.52185817494476 6.634593927779212 0 -1 0
372 42 1 1.1 5.188457431833271 3.6587725893586356 9.5176334396736 0 2 0
430 48 2 -0.55 5.649085544800048 8.641563426876901 9.282109440123886 2 0 0
550 62 1 1.1 6.195350374614767 8.144399153966678 7.872098957942045 0 1 0
416 47 1 1.1 2.3521617840956406 8.480565322032984 9.150499657225142 2 0 0
391 44 2 -0.55 3.410483046668226 3.195978685716271 6.542482753930608 0 1 1
498 56 1 1.1 2.5629254750118284 9.693432799002967 4.50380573268372 1 0 0
465 52 2 -0.55 1.1326406915988536 2.3004692713648685 5.887836304378754 1 1 2
385 43 2 -0.55 13.269670049333627 5.4561535131362415 5.310195301479139 0 0 0
59 7 2 -0.55 7.168613492781361 9.260658630025603 7.156071328734313 0 -2 0
325 37 1 1.1 7.270221757206066 3.9011893510604887 5.679276533997996 0 1 1
295 33 2 -0.55 7.690249680692068 3.0903052552526606 4.3984865524714865 0 -1 1
418 47 2 -0.55 7.229817100534126 6.9073872118586745 7.963348324217975 -1 0 0
25 3 2 -0.55 11.451439455228204 2.654511672967078 4.377807881003705 0 1 0
104 12 2 -0.55 7.651956447920432 3.091129361802813 7.039921514509798 1 1 0
397 45 1 1.1 7.356383838617516 9.553587314216987 5.598635624683236 0 -1 1
537 60 2 -0.55 7.719145101045051 8.21076347777867 4.848991911517961 1 -1 0
13 2 2 -0.55 12.563155323259881 2.404531756159957 6.743594917658552 -1 0 0
230 26 2 -0.55 11.686160050824677 3.162340425955822 9.85970510661989 -1 0 0
508 57 2 -0.55 8.752627448422224 5.924977149876842 9.80726151013919 0 -1 1
301 34 2 -0.55 12.61982169874115 8.646603653122888 4.965738990053807 -1 1 -1
370 42 1 1.1 9.559480330156234 9.401090004165903 7.686417929552528 -1 -1 1
535 60 2 -0.55 10.421907934081231 5.993408235877597 4.6042434293305226 1 -1 1
490 55 2 -0.55 8.24448462916661 5.162648060783238 5.5980127401625035 0 -2 0
425 48 1 1.1 11.144426421502503 2.6134839598795554 5.9771669214202845 -1 1 1
160 18 2 -0.55 10.50039945233762 4.021747025905152 6.366841287566457 1 0 -1
156 18 1 1.1 12.061962439620487 8.46921587249217 6.481551491450633 -1 0 0
462 52 1 1.1 9.80347631538522 5.407046801170945 5.970831868765749 0 -1 1
54 6 2 -0.55 9.689600652792235 6.2308994558071635 7.333381846460288 -1 0 -1
379 43 1 1.1 8.726195764533063 6.78516825616994 8.443208738946456 -1 1 1
248 28 2 -0.55 9.183828888717642 8.261130946898444 8.68586409689497 0 1 0
150 17 2 -0.55 12.537869536197364 7.042754193926475 7.130537026423088 -1 -1 0
510 57 2 -0.55 10.430673071385002 8.81032275184074 6.5098608850660895 -1 0 0
116 13 2 -0.55 12.578250280893764 9.567830147195988 7.5593346472076455 0 0 -1
542 61 1 1.1 19.054869633956855 3.652687697773623 5.9111841992357395 0 0 1
303 34 2 -0.55 15.573696461098502 6.184357208468251 9.857305142607721 0 1 0
328 37 2 -0.55 17.312441739547722 6.862318884268835 8.045932999554045 -1 1 1
429 48 2 -0.55 17.11588861369339 9.615505365590472 10.223674396181835 0 1 1
572 64 2 -0.55 17.64759146287869 4.693911150047676 9.39680378858158 0 1 1
203 23 2 -0.55 19.605449559356824 4.407132303858068 4.647989741923367 0 0 0
164 19 1 1.1 13.75047168904273 6.004954172056235 6.760526936396566 0 0 1
72 8 2 -0.55 16.95635638159262 8.9023381069752 6.509411782005879 1 0 -1
141 16 2 -0.55 17.42945508217525 3.5797782031955663 5.690578473006273 0 -1 0
39 5 1 1.1 17.085412489970132 6.217131902250571 9.449091969673185 -1 1 -1
472 53 2 -0.55 17.21598285293749 6.537737305387986 5.375330902700372 0 0 1
481 54 2 -0.55 19.271591948968847 4.251704173335292 7.374467485526651 -2 0 1
61 7 2 -0.55 14.576260348648285 2.224062181582876 8.477234450197372 0 1 -1
105 12 2 -0.55 19.48864199564124 8.648474803295038 9.241470194165291 -1 -1 0
284 32 2 -0.55 13.818062579385415 4.678178444859736 7.647340568335634 0 -1 1
172 20 1 1.1 16.655290070825497 7.3637781732541665 6.683081726595251 0 -1 0
435 49 1 1.1 16.266684450805172 2.506770563322054 5.419508773852351 -1 0 1
271 31 1 1.1 18.898374131139402 3.869989324133924 8.873719736839961 0 1 1
489 55 1 1.1 13.863067691181485 3.104250834091562 7.33129991862363 1 1 0
231 26 2 -0.55 15.090634707035877 6.949607142998035 6.707523585211456 -1 1 0
33 4 2 -0.55 14.643415658839087 9.849330272345352 9.241532228741947 0 1 1
112 13 2 -0.55 5.494201682310124 2.127769134446028 3.3197361465908983 0 2 0
197 22 2 -0.55 1.2099671884686236 10.229272643453216 5.141133535130485 -1 -1 0
163 19 1 1.1 13.096363364418625 10.192231421418857 9.002462265904663 -1 0 1
187 21 2 -0.55 18.640034889862157 2.213768067669425 9.14819029376417 0 0 -1
55 7 1 1.1 4.107054094748747 3.1496888564636545 14.956380318626609 1 0 -1
511 57 2 -0.55 4.149894236908635 4.574005650900828 14.109013864794484 1 1 -1
259 29 2 -0.55 6.197940040127294 5.705973817326864 13.015310665283488 -1 2 0
264 30 1 1.1 4.838241569435277 6.011245423184232 13.861228142456007 1 0 0
42 5 2 -0.55 3.916499950103364 6.9815432176804055 13.007828046994595 1 0 0
507 57 1 1.1 2.3924306999423877 9.143471576024314 15.521714425605515 1 0 0
357 40 2 -0.55 5.197251278674944 6.636682152684695 15.288604615291552 1 -1 -1
453 51 1 1.1 2.8268726687274754 6.78627881357095 11.886425598718652 0 -1 0
126 14 2 -0.55 2.879278090772989 7.657114414809918 15.715297946055701 0 1 0
180 20 2 -0.55 1.3359862602347432 6.590970328190579 12.49254058151735 1 -1 1
358 40 2 -0.55 1.8415316981496088 9.389899255584297 14.040208202492613 2 -1 -1
247 28 2 -0.55 3.1530809289180297 5.313009676267086 11.352536515283992 1 -1 0
125 14 2 -0.55 5.432443849535544 9.65726364155161 11.766337546942308 0 1 -1
409 46 2 -0.55 6.745883226727176 7.412290417604071 11.188999326872036 0 -1 1
202 23 2 -0.55 1.9646665749819168 2.956048741185751 12.07376106580727 0 0 0
29 4 1 1.1 2.6119168070390772 3.8423050033002575 10.904620859391596 0 1 0
183 21 1 1.1 6.347763933263237 8.88796518777643 10.690284047641724 0 0 0
186 21 2 -0.55 1.135560857873057 5.282009073709368 14.721103795496608 0 0 -1
285 32 2 -0.55 5.606409844257119 2.7205089050318785 15.109409250435819 0 0 0
500 56 2 -0.55 6.181078452439227 4.101668530819609 10.697489511745257 0 2 0
562 63 2 -0.55 6.039930144260937 9.853129553942928 14.925371902937416 1 0 1
377 42 2 -0.55 2.9685936573265552 7.83309444842628 10.5884419361982 0 1 1
368 41 2 -0.55 7.2329700220023305 7.891849282843323 13.61911407860318 0 0 0
565 63 2 -0.55 3.505173751205093 3.3371223322599866 16.425958884346173 1 0 0
355 40 2 -0.55 12.482030403169507 9.876841168834643 10.480020315786328 0 0 1
329 37 2 -0.55 7.1633467250736285 3.1034423307893158 13.043602912268664 -1 -1 1
534 60 1 1.1 7.372037049182575 3.187671335318292 11.48105225313176 1 1 0
208 24 1 1.1 7.318219131876611 6.735006112408658 12.52951804427812 0 -1 -1
326 37 1 1.1 7.432012915841026 9.336979198095367 14.235176825048265 0 -1 0
262 30 1 1.1 8.830414103923165 9.946159169345304 11.489085107830624 0 1 0
47 6 1 1.1 10.950431167002156 3.0552816947280097 13.494886277112546 0 0 0
439 49 2 -0.55 9.699396701372956 8.61525704810159 11.640142165527745 1 0 -1
90 10 2 -0.55 10.12388475889124 4.368116848271113 13.90907894947649 1 0 -1
568 64 1 1.1 9.35547140336215 5.303851533576628 11.114604914915814 1 0 0
427 48 2 -0.55 8.469049693711746 9.18151619132211 15.41060838764488 0 -1 0
177 20 2 -0.55 9.475384931796041 6.774437946918517 15.015859892929656 1 1 0
174 20 1 1.1 9.705802074409549 8.175548471443228 15.78532698202981 0 0 -1
288 32 2 -0.55 8.848929559826228 6.11609576536737 12.477384680779933 1 1 0
431 48 2 -0.55 12.038140645445084 3.447503835896514 12.469303924999053 0 0 0
353 40 1 1.1 10.092338967578938 5.947390098871666 13.778895327321454 0 0 0
60 7 2 -0.55 11.638822212381191 6.432119323786502 13.69304187932317 0 0 -1
242 27 2 -0.55 10.970224987313005 8.96266010652985 15.261501738205068 0 1 0
7 1 2 -0.55 10.952055566587385 5.301698368350332 11.135939012079385 0 -1 -1
82 10 1 1.1 12.886286747880009 6.57086546429193 14.733678006703178 -1 1 0
289 33 1 1.1 12.077327695031368 4.1320553048151485 11.021975687524355 -1 1 0
539 60 2 -0.55 8.745479325843885 3.821033912693653 11.080760170081794 1 0 0
87 10 2 -0.55 11.630705159388901 2.5796972188608094 14.919645012738913 -1 0 -1
213 24 2 -0.55 7.658777078308085 9.726392827543222 10.5174828684805 -1 -1 1
376 42 2 -0.55 12.406580512023117 6.609645479668752 16.299095574244937 0 -1 -1
548 61 2 -0.55 8.058974713583897 10.168172250870937 12.93002696039473 0 -2 -1
443 50 1 1.1 11.235714842980798 2.9139044449469558 16.426126467084877 -1 0 0
359 40 2 -0.55 16.84053090176473 6.502485861007848 18.45933979870665 -1 1 -1
62 7 2 -0.55 18.934633547051753 3.294362297289746 19.74929217333456 0 -1 0
207 23 2 -0.55 13.525734435706758 4.760051850366725 10.721055738923512 0 1 -1
327 37 1 1.1 18.37929699465731 8.698757051324353 10.523499983983223 -1 1 0
12 2 1 1.1 19.427139707762365 10.116823540339665 13.185588021505723 0 1 -1
95 11 2 -0.55 19.344710795534457 2.9729652426716564 15.674887275932212 -1 1 0
170 19 2 -0.55 13.718856888993784 5.224637736689431 14.669350912544685 0 1 -1
569 64 1 1.1 19.44948372717802 4.502967047274526 16.053215987610685 -1 -1 0
18 2 2 -0.55 13.819442513203814 7.776637317916085 14.23079119652636 0 0 -1
114 13 2 -0.55 18.026805407035884 9.820356039295426 14.025288936891002 -1 -1 -1
205 23 2 -0.55 19.156209250600032 9.388590090942888 11.785611433174202 -1 0 0
382 43 2 -0.55 18.27361446591361 7.164169076433241 14.210452660859305 0 0 0
181 21 1 1.1 17.234691412777007 8.419499554572361 14.298360913727729 -1 -1 -1
336 38 1 1.1 14.648567529414061 5.839592000143452 11.137327710019068 0 1 0
229 26 2 -0.55 15.72761655161557 5.233160817628383 12.212493647177997 -1 1 1
77 9 2 -0.55 14.187803131773409 7.266558223638064 11.781796082480344 0 1 -1
137 16 1 1.1 16.650128629006296 4.125242918364423 12.931190070383659 1 2 0
120 14 1 1.1 19.099634463912814 5.945187591727362 13.536481876481204 -1 1 -1
294 33 2 -0.55 16.070230857879615 3.8508144601112013 14.389572895820999 0 -1 0
486 54 2 -0.55 18.09190464369176 4.744114010248307 12.906016289363048 0 0 0
298 34 1 1.1 14.554482299653737 8.32540495272971 12.951140800175036 0 0 0
454 51 2 -0.55 16.141646542176737 8.263596945001252 13.195881152165072 0 1 0
345 39 1 1.1 14.857878458630386 4.3285036917267705 15.379388543291936 0 1 -1
241 27 2 -0.55 16.59809915264459 8.463238706265226 15.812264573353579 1 0 -1
494 55 2 -0.55 14.340006534019643 2.9367387016033852 16.015622950659647 0 1 0
450 50 2 -0.55 16.465439438235784 2.732703704379931 12.134008483149538 0 0 1
257 29 2 -0.55 14.106668601156686 9.8485498929394 12.525788098425899 -1 1 1
193 22 2 -0.55 17.921862373327002 7.152919462776473 10.566498127040134 0 -1 0
348 39 2 -0.55 2.319402531731601 10.196736289607221 19.06512094433296 0 0 0
421 47 2 -0.55 4.889180588392992 8.588619225678354 22.38443802679486 0 -1 -1
479 54 1 1.1 4.203874169445655 7.091417418007155 16.49155195786168 0 1 -1
381 43 1 1.1 5.908640654148273 8.946844522939195 18.29935397263567 0 0 -1
340 38 2 -0.55 3.3407627361813383 7.250172364365906 20.758727241871163 0 -1 0
451 51 1 1.1 6.202936567442287 4.9127831432924935 20.904756364235844 0 0 0
233 26 2 -0.55 1.6256238285492683 4.693695161618267 17.356490262301648 1 0 -1
234 26 2 -0.55 4.957216432152445 3.866338064658308 21.201145679010423 0 1 -1
399 45 1 1.1 1.8618557196829886 7.11804520309856 20.167514316258746 0 -1 0
147 17 1 1.1 4.8437130878008094 7.764317798326613 21.028303110261724 -1 0 -1
549 61 2 -0.55 3.9865176906827267 5.793512452137586 17.414682032539247 0 1 1
37 5 1 1.1 3.7279669839993295 3.175700953082756 20.4902703549026 0 0 0
292 33 2 -0.55 2.3286433319146154 3.524196769329569 21.339758381333503 0 0 0
78 9 2 -0.55 3.5212323045278113 3.8555024342194337 19.090238695359737 -1 1 -1
227 26 1 1.1 3.144773473449389 4.37122827351642 17.625468746742996 1 0 0
142 16 2 -0.55 5.456805513139683 8.782027524358604 19.85658234034228 0 0 -1
69 8 2 -0.55 4.698227861656147 8.377598856039944 17.38682735653731 1 1 -1
414 46 2 -0.55 5.730947356439318 6.438088568239897 20.863562089060466 0 0 0
564 63 2 -0.55 1.7121651856116242 7.783638325543013 18.749300523805353 0 0 0
338 38 2 -0.55 1.3652391672869166 5.615633150223529 20.21409914325107 0 0 0
1 1 1 1.1 1.269315346189119 9.246625712717435 18.292489927019055 0 0 -1
302 34 2 -0.55 1.3303743583937764 9.438360938664925 16.627802324937953 0 -1 0
159 18 2 -0.55 6.767411427453843 4.501775384451892 19.46192327073993 0 0 -1
411 46 2 -0.55 6.995723341152086 7.775645243622812 17.948050265429835 1 1 1
138 16 1 1.1 13.974294882851447 5.555575872189372 21.32442354833737 0 1 -1
546 61 2 -0.55 7.137128783944808 4.7126619609212295 22.186376286550328 0 1 0
265 30 2 -0.55 10.999502370918517 4.503270820735584 16.69743443732589 -1 0 0
555 62 2 -0.55 12.251261402248522 2.5548122038135057 17.63872240918672 0 0 1
530 59 2 -0.55 8.650374697391136 9.522298203229687 20.615325721909926 0 -1 0
103 12 2 -0.55 7.640592655721016 3.041413636277691 17.297304649402108 0 0 0
98 11 2 -0.55 11.760031488003401 3.3307715594646172 20.030940872597547 -1 0 -1
266 30 2 -0.55 9.711257129876513 2.982495180476674 21.595276181590364 -1 1 0
374 42 2 -0.55 9.45718723835457 7.942277132577022 17.34479884668996 1 2 0
10 2 1 1.1 8.420097679050082 7.066784362812561 18.18894720052831 -1 0 -1
209 24 1 1.1 7.938817497084176 4.196871916634891 18.387619097810294 1 0 -1
108 12 2 -0.55 8.663615365343327 7.053593016738088 19.749949721985956 0 0 -1
244 28 1 1.1 12.904306642773465 3.3340757029929406 18.85003495477305 0 0 0
524 59 1 1.1 9.156333948953112 8.035644579192693 20.938706667736646 0 1 0
324 36 2 -0.55 12.508039040498343 6.025112507690684 20.94414916097766 0 1 0
119 14 1 1.1 10.2383498308446 2.836918043062692 20.07415767692867 0 0 -1
157 18 2 -0.55 9.318589321707679 3.7003900280301485 19.09776755849355 -1 1 0
501 56 2 -0.55 8.248124005535246 5.580896876314885 17.62828995171725 1 0 0
424 48 1 1.1 11.803000333778757 5.618363033957655 17.467589009212148 1 1 0
389 44 1 1.1 11.685462078517675 7.027148221946057 20.02756844161926 1 0 0
287 32 2 -0.55 11.105133996680681 6.349778685734017 18.694362102614853 0 1 0
24 3 2 -0.55 10.703056404528496 7.858259598684898 20.946241505431253 0 1 0
45 5 2 -0.55 12.779886870500507 8.09563754068468 19.326551533165443 -1 0 -1
143 16 2 -0.55 13.03105182565348 4.840563295595798 18.18427731025117 0 2 -1
270 30 2 -0.55 8.445640532491932 7.694574154035753 22.313502463693496 -1 -1 -1
215 24 2 -0.55 14.178969572104783 4.01659612431572 21.728662970614373 0 2 -1
390 44 1 1.1 14.187366686627456 8.910351085789486 19.122200179595012 1 2 0
91 11 1 1.1 0.9825275944199912 4.218340581371674 20.903762509793168 1 2 0
255 29 1 1.1 15.727065023693013 9.522914486600765 16.552888317948174 -2 0 0
279 31 2 -0.55 15.446784403559297 5.206441070180823 16.628076006451522 0 -1 -1
341 38 2 -0.55 16.5675498715474 3.0879894416323515 20.92741104117178 -1 0 -1
235 27 1 1.1 18.215666256753803 7.54091690040289 21.883022884083083 -1 1 -1
412 46 2 -0.55 19.59387141719048 7.867775174207019 21.123013950041816 0 1 -1
67 8 2 -0.55 14.549267315245045 8.861281595609492 17.52509896332873 1 -1 -1
272 31 1 1.1 17.437115902028125 2.905965535591265 19.496968567231143 -1 0 -1
473 53 2 -0.55 18.624438334364836 9.707741917371802 18.819450308441212 -1 -1 0
161 18 2 -0.55 15.439594880570645 8.249453673508842 19.81053716806516 -1 0 1
436 49 2 -0.55 14.973297041663491 5.8448171654975205 20.149688203070355 0 1 1
282 32 1 1.1 14.945358530219902 2.8461595018905714 20.971658265737496 0 2 -1
366 41 2 -0.55 18.65364741926105 4.392874057006675 22.097199276113976 -1 1 -1
413 46 2 -0.55 14.311752126105263 2.9232546434481343 19.451103550480788 -2 1 0
354 40 1 1.1 17.44652936401369 3.310623966688887 22.357403421890353 0 2 0
269 30 2 -0.55 18.011761071798595 5.057608704134756 16.423703284258593 -1 -1 -1
49 6 2 -0.55 16.819128492183566 3.913078201600878 18.398220252790125 0 0 0
80 9 2 -0.55 17.314366874863982 6.582808662257088 20.96551467886797 -1 0 -2
278 31 2 -0.55 17.330058248151328 8.851252277321233 22.00004121297747 -1 3 0
3 1 1 1.1 16.80521033135432 5.223536015425006 17.459633885329453 -1 0 0
433 49 1 1.1 16.169257154904848 6.822715251962118 19.8821539584236 -1 0 0
576 64 2 -0.55 3.5702208864101506 10.230957889490005 15.729333662714344 1 1 0
571 64 2 -0.55 11.647872961223188 10.196401299964585 13.030828019380278 0 -1 -1
134 15 2 -0.55 4.036518692478264 17.513674266074982 -0.7121820568499977 1 0 -1
76 9 2 -0.55 2.4403779634205325 16.65348451280177 1.2784621223464239 2 -1 0
16 2 2 -0.55 2.2257226057237185 14.453092656392695 2.769926737143635 0 1 0
499 56 2 -0.55 5.4507894483412676 15.518249197464275 0.42348594953743834 1 0 1
66 8 1 1.1 5.435891460048963 16.69819983827859 -0.719684568850723 0 -2 0
518 58 2 -0.55 5.121904297186722 14.926315149551174 2.9728661440677815 0 1 1
21 3 1 1.1 5.7640222002064 14.374106077213206 1.5910869106016663 0 -1 -1
222 25 2 -0.55 5.004243673759527 12.965438594917636 1.157537776948165 0 0 -1
356 40 2 -0.55 1.806737042533097 11.961427968999848 -0.5485584594890527 0 0 0
100 12 1 1.1 5.273517791867022 11.618122245331472 0.32222871259944075 0 -1 0
380 43 1 1.1 2.5834661414130817 17.523418324835127 -0.07130870674111067 0 1 1
452 51 1 1.1 1.6544545019580434 15.278090130253517 1.565147902911726 1 -2 1
460 52 1 1.1 1.7039462123184963 13.458726601334284 -1.048523560392472 1 0 1
463 52 2 -0.55 6.6078239270161445 17.71575744432931 -0.36282112241286035 0 -1 0
526 59 2 -0.55 5.301955367988874 12.16874269741544 -1.1637538304130546 -1 0 1
393 44 2 -0.55 1.545874209893683 16.79789263086757 -1.0626744368956356 1 0 2
99 11 2 -0.55 1.5839962775946077 14.38992692026017 0.24980462961973782 1 0 0
251 28 2 -0.55 6.648777876322554 11.027611313205846 1.0080141572960901 0 0 0
505 57 1 1.1 1.33861872273034 10.54507615842 -1.1349324695183478 1 0 0
56 7 1 1.1 12.530583178922903 18.43064345917254 0.29365055194866274 -1 -2 0
101 12 1 1.1 7.070364985202374 18.322276660590774 3.4268347306009295 1 0 0
199 23 1 1.1 19.104445245323323 16.97646190053137 8.987715546239263 0 -1 0
337 38 2 -0.55 7.731503235219648 18.420479608932478 2.0429487677481792 0 -2 -1
493 55 2 -0.55 7.343038136986726 14.179770131385048 1.846501270082761 1 -1 0
118 14 1 1.1 11.397433001652109 12.7772868793321 0.9393105169940688 0 -1 0
28 4 1 1.1 8.802354016409843 13.793919403342086 2.4389762078381265 0 -1 0
252 28 2 -0.55 9.089673717382558 15.909215935328264 0.4453493996249538 0 -2 0
445 50 2 -0.55 12.249884291621056 14.194852966615866 0.5798409064045158 -1 -2 0
225 25 2 -0.55 9.821398844085447 13.140560153139123 1.3333764966574253 0 -1 1
182 21 1 1.1 12.064164676149643 11.974548022791998 3.670265949519151 -1 -1 1
400 45 2 -0.55 12.154826996559217 11.99628684694303 2.0531442880838564 0 0 1
267 30 2 -0.55 9.726620958265265 14.837636867232074 3.2424887999696974 0 0 1
148 17 2 -0.55 11.248542187101732 11.750398160530048 -0.44408835745380437 -1 -2 1
249 28 2 -0.55 12.727347292952961 16.863544032095838 0.2591571210138741 0 0 1
388 44 1 1.1 9.43528903424126 16.270478468299476 -1.0057946079002122 1 0 1
146 17 1 1.1 9.081531542610355 11.197466400887336 3.833998553364152 -1 0 0
495 55 2 -0.55 10.714638825181742 11.098526135193204 3.9630513710766158 0 0 -1
122 14 2 -0.55 12.018504531442893 16.04783764003102 3.75315818450353 -1 0 -1
240 27 2 -0.55 8.577037412104197 12.640861303504103 3.5370228020086634 -1 0 0
109 13 1 1.1 13.331488468897602 15.459489460031744 0.6300384150599947 -1 1 0
53 6 2 -0.55 7.245859663986128 16.82296725810052 4.188779376675721 0 0 0
517 58 2 -0.55 14.000528200501318 10.316217645841043 -0.2682079423938988 -1 0 1
293 33 2 -0.55 15.434640377940626 10.878577943786869 5.84758221985738 -1 0 0
480 54 1 1.1 19.49776116258536 11.671732133546014 5.565337658687825 0 -1 1
35 4 2 -0.55 16.408888272613048 13.909995877352854 -1.7907655172723476 1 -1 -1
426 48 1 1.1 13.569409171806454 16.356685199841877 3.450922073420916 0 -1 0
139 16 2 -0.55 13.592394985273849 17.956994829754898 3.2449334536378105 -1 0 -1
311 35 2 -0.55 13.949947109407749 15.56253789510169 2.1018210375265496 0 -1 1
107 12 2 -0.55 15.015222529158008 12.6756500992662 -0.024267698492895562 0 0 0
140 16 2 -0.55 16.840474901238025 14.617995675248832 0.6827097953035763 0 0 0
432 48 2 -0.55 16.885137060562982 17.156424032633502 1.7099072736438758 0 0 0
559 63 1 1.1 17.299261738409236 15.576993578989818 1.8755270135869258 -1 0 1
321 36 2 -0.55 18.901130391211154 15.683258789773722 1.9714039376426582 -1 -1 1
30 4 1 1.1 14.831411213332725 11.484245624302082 -1.0285930010288453 1 0 1
219 25 1 1.1 15.71291232333531 14.136608142268793 -0.3714741092767473 0 0 0
360 40 2 -0.55 14.543296350696346 15.173811007270288 -0.3715841848578907 0 -1 0
162 18 2 -0.55 16.71463063463117 15.070403079976503 3.2674776509587513 -1 -1 0
158 18 2 -0.55 16.35698571699011 11.074207100724632 -1.4527957761740051 -1 0 1
347 39 2 -0.55 18.164874289330218 18.29470997565052 -1.6792695677999512 0 -1 2
519 58 2 -0.55 5.584411261658586 12.709183067217653 4.256367336136468 -1 -1 0
263 30 1 1.1 4.97541603206998 14.169903165849119 4.406450149476128 -1 1 1
276 31 2 -0.55 3.566595395550829 10.921492588407329 4.541723054433272 1 0 -1
5 1 2 -0.55 6.801929796016636 15.731277791085644 9.80562347852766 0 0 0
75 9 1 1.1 1.9191779594052034 14.094987989658247 4.291005824326857 0 -1 0
191 22 1 1.1 3.6684933879160946 11.318509802524742 9.434284404228164 1 1 0
128 15 1 1.1 5.285602633459428 15.29956576723307 9.493402401839173 -1 0 -1
113 13 2 -0.55 3.1302432023312026 16.936948647091754 6.342898562035323 0 -2 0
506 57 1 1.1 3.030022680164575 16.155282216048814 7.715102859677877 0 1 1
9 1 2 -0.55 5.198053319507364 11.407467361932193 8.91551409529805 0 -1 -1
305 34 2 -0.55 5.485385342379829 13.932247832624856 8.650671487429985 0 -2 1
402 45 2 -0.55 2.51161708463406 14.66201168469651 7.541250751785942 0 0 2
274 31 2 -0.55 6.258093145126702 17.437855919542123 6.503933738270447 1 0 -1
492 55 2 -0.55 3.431125780160976 14.003058524509441 4.899258881491019 1 -2 0
106 12 2 -0.55 4.828611287856252 12.086612486871816 6.582480296442213 1 0 -1
64 8 1 1.1 4.995851239044089 11.482261527173646 5.089498372390686 1 -1 -1
237 27 1 1.1 5.711844966342193 12.439673543533718 7.875887530691434 0 1 -1
117 13 2 -0.55 4.462482961425996 16.184703345657958 8.465845045435271 0 -1 -1
220 25 2 -0.55 2.8197142991109336 12.557674733677967 8.989444885774688 1 0 1
442 50 1 1.1 1.8206369289208784 13.292801344121711 7.930949953027817 0 0 0
520 58 2 -0.55 1.8795247725114346 16.91669622052875 8.61380877769682 2 1 0
441 49 2 -0.55 5.841222701429647 15.018771464008408 5.439268647367228 0 -2 1
110 13 1 1.1 6.856249617528785 16.227800506137253 5.626232435096485 0 -1 0
474 53 2 -0.55 1.6453857380891403 12.143095641124106 6.8527424112467905 -1 -3 1
243 27 2 -0.55 0.969973080720082 15.14016448727169 4.961504421437209 1 -1 0
14 2 2 -0.55 1.1286222024922419 12.691861793066215 4.377477360051706 -1 -1 0
226 26 1 1.1 2.6932135792423915 18.34746860654053 5.768893475736665 0 0 0
553 62 2 -0.55 16.159186930875897 18.37284085899596 3.8900782415797845 -2 0 0
136 16 1 1.1 6.952360445638429 18.225873940634568 7.7323235833056465 1 0 -1
339 38 2 -0.55 10.853843964223467 15.975366965024714 -1.6816480988198486 0 0 1
512 57 2 -0.55 11.835727118422191 13.504331069149973 4.049359447391203 -1 1 1
65 8 1 1.1 10.999883679324585 14.883901007622857 4.196250859904214 0 0 0
38 5 1 1.1 7.934761123856795 16.8700496973269 10.024379838959897 -1 -2 0
216 24 2 -0.55 7.26843904920804 12.241060657754211 7.499323559998606 1 0 1
509 57 2 -0.55 9.969444616494542 17.877876752817627 6.454460712083334 -1 -2 1