LAMMPS data file via write_data, version 2 Aug 2023, timestep = 20000, units = real

3150 atoms
9 atom types
2100 bonds
7 bond types
1050 angles
8 angle types
0 dihedrals
4 dihedral types

-33.87647316845804 33.87647316845804 xlo xhi
-11.292157722819322 11.292157722819322 ylo yhi
-11.292157722819322 11.292157722819322 zlo zhi

Masses

1 15.9994
2 12.011
3 1.008
4 1.008
5 12.011
6 15.9994
7 15.9994
8 15.9994
9 1.008

Pair Coeffs # lj/cut/coul/long

1 0.2526 2.8492
2 0.0663 3.5812
3 0.0283 2.3734
4 0 0
5 0.245 2.8114
6 0.1195 3.1
7 0.1195 3.1
8 0.155 3.165
9 0 0

Bond Coeffs # harmonic

1 1109.29 1.12
2 399.792 1.43
3 299.844 1.52
4 400.034 1.53
5 310.707 1.41
6 179.254 0.971
7 1059.16 1.012

Angle Coeffs # harmonic

1 47.694 109.5
2 55.1271 109.5
3 47.635 109.6
4 55.1139 111
5 54.9931 110.3
6 180.46 109
7 30.1731 110
8 75.9 113.24

Dihedral Coeffs # harmonic

1 0.3011 1 3
2 1.4149 1 3
3 0.239 -1 3
4 0 1 1

Atoms # full

671 224 9 0.41 -27.883991835798174 -8.564744686582507 -4.726203999106971 0 1 1
670 224 8 -0.82 -27.718339174762907 -7.563310299724816 -4.72250521769986 0 1 1
617 206 9 0.41 -27.370568731650003 11.100229717889171 -3.9562002592292336 0 -1 1
616 206 8 -0.82 -26.957067244831677 -10.709011215542004 -4.4815905658016115 0 0 1
219 73 9 0.41 -31.194636565636973 -8.221696521468276 -4.951734518595546 0 1 0
672 224 9 0.41 -26.880730115505116 -7.392881061637706 -4.170182905709587 0 1 1
170 57 9 0.41 -33.3441107587618 10.522018752934926 -6.873456680478323 0 -1 0
217 73 8 -0.82 -31.649410601318106 -7.786817823167977 -4.148436410993491 0 1 0
656 219 9 0.41 -22.13474641881792 5.603906851718143 -11.28577620810371 0 -1 1
218 73 9 0.41 -31.712828465529295 -8.33592565231621 -3.294641923024405 0 1 0
426 142 9 0.41 -32.36306456999885 -7.23282004846879 -9.78016304739772 0 0 1
2823 941 9 0.41 -32.119285039961376 -4.38165763606477 -4.488351815683936 1 0 1
86 29 9 0.41 -24.339398828499995 -7.289872427198146 -3.144137255319176 0 0 0
85 29 8 -0.82 -25.171273883821556 -7.851493318454249 -2.9945275574933348 0 0 0
2792 931 9 0.41 -28.485984200122402 -6.055155825516852 -4.2301296028611155 1 0 1
266 89 9 0.41 -32.99206642699795 4.934366208233882 -3.606210104222046 0 0 0
60 20 9 0.41 -31.241408687370008 -11.209595987284255 -6.423544056267505 0 0 0
1019 340 9 0.41 -16.95657142649871 4.556589670784433 -3.3720387466653454 0 -1 0
2572 858 8 -0.82 -28.26231389466008 0.08725869766862537 -0.8308593166398115 1 0 0
1524 508 9 0.41 -26.601438672264024 4.576616459799517 -5.62431444930748 0 -1 0
2793 931 9 0.41 -29.621336429614757 -4.836055228843285 -3.8558580746303717 1 0 1
424 142 8 -0.82 -33.154130784852164 -7.539926807519057 -10.345620996815281 0 0 1
2822 941 9 0.41 -31.49115398652436 -5.899370156886808 -4.317029893042845 1 0 1
205 69 8 -0.82 -33.7148923773362 -3.6187614857480037 -5.364548235209137 0 0 0
2905 969 8 -0.82 -23.676290031762917 8.709152757355202 -1.5302540151462427 1 0 1
187 63 8 -0.82 -32.84629381126333 -6.638465044236509 -0.8788097937254236 0 1 0
2340 780 9 0.41 -24.399611151571 -10.962315679421083 -2.3924491345044867 1 0 0
2339 780 9 0.41 -25.623085192636367 -10.706503554338743 -1.2577644850846745 1 0 0
760 254 8 -0.82 -28.828894540684644 -11.246304324359993 -0.8076636742375598 0 0 0
2791 931 8 -0.82 -28.729190250791433 -5.264107203015646 -3.6231474938670756 1 0 1
189 63 9 0.41 -33.79176724159979 -6.607552370411769 -0.5027900985907099 0 1 0
2574 858 9 0.41 -27.635389577951823 0.12672301815036668 -1.6373220970215137 1 0 0
2746 916 8 -0.82 -30.389168283785605 -7.052630391231641 -9.38562847374712 1 0 1
373 125 8 -0.82 -30.029535139328058 -5.998434962123356 -6.7794170496846675 0 0 1
618 206 9 0.41 -25.939031800889946 -10.672665746874776 -4.498318431987589 0 0 1
453 151 9 0.41 -32.37174022904631 -10.383993335729665 -9.013035252861684 0 0 0
297 99 9 0.41 -23.724124073806884 6.663674174538336 -5.1250287375287975 0 0 0
2338 780 8 -0.82 -24.70960855589147 -11.131928481074082 -1.432037220601302 1 0 0
715 239 8 -0.82 -25.677941415567247 -7.909129247930001 -7.459275389921464 0 0 1
716 239 9 0.41 -26.350712571287154 -8.485145335504424 -6.962061964913791 0 0 1
3086 1029 9 0.41 -28.048460985860682 -9.009510280253824 -8.888014370584019 1 0 1
3085 1029 8 -0.82 -27.34985239921871 -9.298946069361207 -9.5726861464239 1 0 1
3087 1029 9 0.41 -26.677171706260783 -9.944094789162945 -9.169049661463495 1 0 1
3019 1007 8 -0.82 -24.308620311641484 -10.118414740985965 -4.057594607096675 1 1 0
609 203 9 0.41 -27.355650027712304 -9.322868655661232 -11.21765011269538 0 1 1
188 63 9 0.41 -32.816479403753135 -7.192119102551307 -1.7296381074304126 0 1 0
1311 437 9 0.41 -24.176436268197072 -8.142262780585622 -8.213648948011267 0 0 1
408 136 9 0.41 -26.059891948413163 -7.984397056959478 -10.52472321110711 0 0 1
717 239 9 0.41 -25.959031548768483 -6.929085961629124 -7.38606494710837 0 0 1
2821 941 8 -0.82 -31.37768033595799 -5.008877958146265 -4.7989307223815425 1 0 1
867 289 9 0.41 -26.151361499272525 -4.752900267287582 -8.252682829163804 0 0 0
267 89 9 0.41 -32.63234874007599 4.201462692861615 -5.034540547947818 0 0 0
866 289 9 0.41 -25.83871216786222 -4.800497055755714 -6.613299715333606 0 0 0
865 289 8 -0.82 -25.72057765548697 -5.29231973694033 -7.50397791138078 0 0 0
197 66 9 0.41 -32.376192936788115 6.254308790845673 -8.898209388439941 0 0 0
198 66 9 0.41 -33.17176162834198 7.689238033806955 -8.964166179710821 0 0 0
2573 858 9 0.41 -29.2276776606616 0.19038503836933351 -1.1501649411892423 1 0 0
573 191 9 0.41 -25.45536804720215 -11.138315860868243 -10.476660267143153 0 1 1
374 125 9 0.41 -30.390120121593796 -5.7739061729545655 -5.851697605822941 0 0 1
2747 916 9 0.41 -29.78322435357896 -6.646127719710605 -8.679995483564664 1 0 1
2866 956 8 -0.82 -29.59658548198124 -8.033006533963615 -0.14995951439469124 1 0 0
762 254 9 0.41 -28.0247408832917 -10.60922962569438 -0.7861852341466609 0 0 0
3122 1041 9 0.41 -33.38769998453828 2.8781566337173494 -7.00862790051766 1 -1 1
184 62 8 -0.82 -30.868634685962938 0.9549053874921167 -1.7224715787132308 0 0 0
3039 1013 9 0.41 -24.56494431799493 -4.448548832685057 -2.0419860571539186 1 0 0
2906 969 9 0.41 -24.12743173566529 9.617900843477816 -1.4276988902964867 1 0 1
2748 916 9 0.41 -29.968069073153746 -6.923835945267703 -10.30497616395623 1 0 1
3118 1040 8 -0.82 -30.558598712008227 -9.203116013841143 -6.402279720025859 1 0 0
3120 1040 9 0.41 -29.91805395204668 -9.783599682771337 -6.94966625256595 1 0 0
3119 1040 9 0.41 -30.756835421657712 -8.302433980046288 -6.843236526332638 1 0 0
406 136 8 -0.82 -25.97856130226447 -7.073685980916449 -10.972360797233442 0 0 1
23 8 9 0.41 -26.753776240901075 0.872976436403647 -0.09491836433623924 0 1 0
575 192 9 0.41 -18.907807114013686 -1.476985885729082 -1.4442327860709305 0 0 0
93 31 9 0.41 -27.897030739075596 10.086712327597954 -1.2550855653820534 0 0 0
724 242 8 -0.82 -31.904712568763806 8.701018034104134 -0.20893045957610568 0 0 0
761 254 9 0.41 -29.7107869034597 -10.77991586309475 -0.6233654751931681 0 0 0
911 304 9 0.41 -18.36341035045014 9.123135978883507 -8.341224529978074 0 -1 0
87 29 9 0.41 -25.130324815885412 -8.811384492449225 -3.345630318255467 0 0 0
39 13 9 0.41 -28.269901564075166 -11.256342964520904 -6.03298135706053 0 1 0
37 13 8 -0.82 -28.46253498086413 -10.90602371410635 -6.964772369683742 0 1 0
3020 1007 9 0.41 -23.46531204538729 -9.537558954395541 -4.18242558565907 1 1 0
20 7 9 0.41 -24.336567511646024 -2.5091812095203156 -0.6158732859911762 0 0 -1
396 132 9 0.41 -18.1813550743192 11.262551516596677 -4.041211143626245 0 0 1
722 241 9 0.41 -17.269495436984215 -5.114350957955099 -3.291215478934742 0 0 0
2837 946 9 0.41 -31.732162289954587 -4.374416998471141 -8.470429978942596 1 0 1
457 153 8 -0.82 -22.149763902097785 -7.517839290681183 -0.6485933000236273 0 0 0
334 112 8 -0.82 -17.06349746885797 3.989059021671407 -7.584990802342093 0 0 0
1032 344 9 0.41 -21.916059803101255 -8.012956320751975 -5.540517973358013 0 0 0
69 23 9 0.41 -19.722521145041178 -10.531425597957687 -7.70125107245055 0 0 0
3021 1007 9 0.41 -24.136645652539595 -11.06133290348081 -4.424865754078998 1 1 0
67 23 8 -0.82 -18.830290653495418 -10.17293671208597 -8.051002983021677 0 0 0
540 180 9 0.41 -33.46739847147056 4.974377578754403 -0.820929252463733 0 0 0
2907 969 9 0.41 -23.043474594415102 8.550640905650983 -2.314978621144638 1 0 1
1030 344 8 -0.82 -22.27118823063876 -8.516788352921328 -4.724961210054885 0 0 0
269 90 9 0.41 -20.871502650551786 -11.25309307695629 -5.353290211391427 0 0 0
1031 344 9 0.41 -21.951399887731238 -8.046679243144688 -3.8827378422433387 0 0 0
72 24 9 0.41 -22.0388556203124 8.58809477155502 -7.0205326224335165 0 0 1
268 90 8 -0.82 -20.917388354810463 -10.721792561797189 -6.2268868541690585 0 0 0
270 90 9 0.41 -21.51654397443253 -9.90255131569901 -6.299790375174998 0 0 0
260 87 9 0.41 -21.168325450337296 11.097259334119382 -0.7875360792078379 0 -1 0
261 87 9 0.41 -20.099389027169025 9.804779091218503 -0.6706261714187995 0 -1 0
68 23 9 0.41 -18.157086311363177 -10.05587670702063 -7.284444765579166 0 0 0
1183 395 8 -0.82 -17.746787581895973 10.594949508372242 -0.954267417768623 0 -1 0
71 24 9 0.41 -21.702192206517118 10.258642961940257 -6.715105735791523 0 0 1
525 175 9 0.41 -21.610450662069553 -5.205528889844185 -9.586381655969776 0 0 1
70 24 8 -0.82 -21.629707166554205 9.458281181684743 -7.344207365452557 0 0 1
721 241 8 -0.82 -17.278274126044987 -4.269564827982287 -2.713690796279902 0 0 0
523 175 8 -0.82 -21.883450433184997 -5.262106054239461 -8.605417424059688 0 0 1
543 181 9 0.41 -20.49648356951458 -6.593849312552031 -3.895859279175939 0 0 0
1310 437 9 0.41 -23.109632529678176 -8.387188172400796 -9.550165400843417 0 0 1
541 181 8 -0.82 -20.803097547890687 -6.970576661747676 -2.989737041783661 0 0 0
542 181 9 0.41 -20.11102620466017 -6.8677289991066575 -2.242477461178021 0 0 0
524 175 9 0.41 -21.50561528550554 -6.091590901244098 -8.14052036931171 0 0 1
2376 792 9 0.41 -32.555731625958984 1.4291502795567137 -5.781196518205554 1 0 0
713 238 9 0.41 -21.788144651728977 -8.237581464042972 -7.858241549980317 0 0 1
712 238 8 -0.82 -21.31105688127631 -7.606108491507829 -7.206841928118316 0 0 1
49 17 8 -0.82 -23.87829741022376 -4.875372464935784 -3.5714992598740904 0 0 0
3062 1021 9 0.41 -30.886086546590537 6.487496810512837 -10.089814520984145 1 0 1
714 238 9 0.41 -20.36630289698548 -7.932759018559857 -7.006438052259561 0 0 1
363 121 9 0.41 -21.309410759358222 -0.7752117776725775 -0.9944668769778051 0 0 0
1309 437 8 -0.82 -23.316726776647698 -8.569956839339905 -8.571062645534399 0 0 1
50 17 9 0.41 -23.721373804919565 -5.653227985063565 -4.216924093577548 0 0 0
1316 439 9 0.41 -21.681781768407006 7.640012766356058 -4.518123412192395 0 0 1
104 35 9 0.41 -24.727863404396775 10.772857654136615 -8.330895458344216 0 -1 0
824 275 9 0.41 -26.702254393284726 4.582174189777673 -11.05929422232583 0 0 0
903 301 9 0.41 -22.73251137516279 -5.915652952658636 -6.411075682216866 0 0 0
172 58 8 -0.82 -19.224552350287443 -3.6814081477159464 -7.803137760416092 0 0 0
173 58 9 0.41 -19.214860346605533 -4.267850940935405 -8.63527984294359 0 0 0
503 168 9 0.41 -30.545425922502513 -9.819872857772946 -11.165111138937515 0 0 1
402 134 9 0.41 -21.10477154860139 3.862415997236937 -6.208521410216328 0 0 1
902 301 9 0.41 -24.408089466154376 -5.9943892259677645 -6.5618181709914385 0 0 0
901 301 8 -0.82 -23.611437322791975 -6.024224314188052 -5.9131231726930835 0 0 0
321 107 9 0.41 -18.512914576000306 -7.794188635966258 -1.2552705633354488 0 0 0
1405 469 8 -0.82 -23.421544130129305 -6.915784985837159 -11.284167533891573 0 0 1
494 165 9 0.41 -21.650241264130585 5.76160700324035 -1.40528129288667 0 0 1
91 31 8 -0.82 -27.244092587054148 9.298982351317221 -1.1924427716368946 0 0 0
178 60 8 -0.82 -17.340993721189996 -7.663899362500979 -10.185454795271312 0 0 0
76 26 8 -0.82 -19.426176785842074 -5.38735703686319 -10.468103633953847 0 0 0
1364 455 9 0.41 -19.32386644676837 -8.114566774225839 -10.531474259085549 0 1 1
2867 956 9 0.41 -29.475715487082518 -7.107892362495233 -0.5632578806555166 1 0 0
1182 394 9 0.41 -17.004679340982044 6.624817511537213 -0.4436332754439487 0 0 1
458 153 9 0.41 -21.417826649418906 -7.485505227857006 -1.3596806888223778 0 0 0
400 134 8 -0.82 -20.960871161567795 3.2592285979322337 -7.008466515135967 0 0 1
459 153 9 0.41 -22.34469948707472 -8.458704437919355 -0.3155915679937351 0 0 0
436 146 8 -0.82 -22.58565512443137 5.074045486552585 -0.27663351541108483 0 0 1
2868 956 9 0.41 -30.338836389737768 -8.502679518660038 -0.659522298873604 1 0 0
3049 1017 8 -0.82 -29.736816795890896 2.9937751270717285 -0.29019783544418765 1 0 0
196 66 8 -0.82 -32.71523007572829 6.984461768597903 -9.532492848794162 0 0 0
583 195 8 -0.82 -33.82322827007891 -1.5245720344385312 -9.73092612614614 0 0 1
375 125 9 0.41 -29.395149405771434 -5.248720144933729 -7.032775851886664 0 0 1
3037 1013 8 -0.82 -25.110763295660256 -4.031490622844408 -1.2817630605455044 1 0 0
584 195 9 0.41 -32.91500583817501 -1.0613994977438033 -9.781458165996025 0 0 1
2366 789 9 0.41 -32.28135134705698 1.8240887574958204 -9.3396576056529 1 0 1
2365 789 8 -0.82 -32.65393455184237 1.973086181504593 -8.403355204938272 1 0 1
441 147 9 0.41 -25.517920114668733 0.4474087002771707 -3.569464250078532 0 -1 1
2992 998 8 -0.82 -33.50764261496829 7.1264948975354265 -2.3467065943126 1 0 0
2799 933 9 0.41 -27.783760152865348 -8.999831925560219 -1.6106846045463783 1 0 0
56 19 9 0.41 -30.68900158924108 -0.3925911655001162 -3.3698121166923745 0 0 0
359 120 9 0.41 -29.05519499069108 -5.455179604175436 -1.7525502871000942 0 0 0
55 19 8 -0.82 -30.863813378267675 -1.3444660635725363 -3.681941623875372 0 0 0
57 19 9 0.41 -30.403139253405172 -1.4630200326406761 -4.578806562643066 0 0 0
471 157 9 0.41 -28.625746255917427 7.782019102404334 -0.8764447129748962 0 -1 0
62 21 9 0.41 -26.819872378224964 -2.5061394312698795 -9.705306784743494 0 0 0
452 151 9 0.41 -33.32084571906424 -10.978125084655566 -10.283054849470561 0 0 0
2465 822 9 0.41 -32.99650502628967 -3.035993836838525 -2.0113163666594893 1 0 0
275 92 9 0.41 -29.993202989276593 -2.6292864315408124 -7.005945501829795 0 0 0
276 92 9 0.41 -31.613582458323478 -2.070190451839631 -6.741630701787735 0 0 0
403 135 8 -0.82 -30.52019541487715 2.873161590762649 -3.857293062907103 0 0 0
401 134 9 0.41 -20.641175702644055 3.915793805317879 -7.715922492800051 0 0 1
24 8 9 0.41 -25.40034238118967 1.4158481756284296 -0.9274902014458117 0 1 0
2374 792 8 -0.82 -32.012763099322356 0.5855873327096788 -5.94856576829052 1 0 0
202 68 8 -0.82 -19.716190656913724 8.882560042777143 -9.219311465228252 0 -1 0
730 244 8 -0.82 -29.090609547897785 -0.09486303308098343 -8.178126973536076 0 0 0
731 244 9 0.41 -28.091470605646563 -0.2550180281729393 -8.28363026679536 0 0 0
2375 792 9 0.41 -32.451013659762225 -0.16853438066914705 -5.428372833928784 1 0 0
2466 822 9 0.41 -31.601477111604392 -2.7641772087666485 -2.810491168219098 1 0 0
2464 822 8 -0.82 -32.036392526781285 -3.348159573773115 -2.0973470552956055 1 0 0
480 160 9 0.41 -25.634979790944428 4.357115328328755 -8.948168177746016 0 0 0
265 89 8 -0.82 -32.220297365341914 4.68120303464306 -4.2257100467099304 0 0 0
274 92 8 -0.82 -30.617139470659595 -1.9430977348920404 -6.577461767247731 0 0 0
3121 1041 8 -0.82 -33.609983764603925 3.094021879434134 -6.034457242245965 1 -1 1
732 244 9 0.41 -29.530302179763034 -0.8319238772713504 -7.620517902785753 0 0 0
637 213 8 -0.82 -25.846937790275675 -1.270300906638555 -6.169019619744604 0 1 1
639 213 9 0.41 -25.315805071370217 -0.7124719691961747 -5.490974554106064 0 1 1
361 121 8 -0.82 -20.696690517989477 -1.1153700683614183 -1.737668184082528 0 0 0
585 195 9 0.41 -33.699291728760365 -2.3224668084820035 -9.105448110778754 0 0 1
224 75 9 0.41 -27.48144169246152 4.718585869439785 -2.214264418218283 0 0 0
3127 1043 8 -0.82 -31.463198333554384 -0.39350823739464147 -9.989900160384032 1 0 1
3129 1043 9 0.41 -30.749915466369448 -0.2540440361519529 -9.279364207225914 1 0 1
3128 1043 9 0.41 -31.210898151459457 -0.9990769987211312 -10.766136658792202 1 0 1
638 213 9 0.41 -25.797595552705562 -2.2179391603539305 -5.800638276649929 0 1 1
223 75 8 -0.82 -26.9807210111086 4.199856847979142 -1.4919861650980035 0 0 0
339 113 9 0.41 -28.210449541508233 -3.476746861122346 -8.838314713694084 0 1 0
478 160 8 -0.82 -25.871139875903694 3.550369376963877 -9.532123766379039 0 0 0
479 160 9 0.41 -26.807568529716008 3.1505967550789578 -9.423746681574775 0 0 0
303 101 9 0.41 -31.49671487546322 5.029673913694083 -6.887883098847734 0 1 0
61 21 8 -0.82 -26.56055701336458 -3.412366215268549 -9.332097925872008 0 0 0
399 133 9 0.41 -25.15746441675168 -4.64782959326521 -4.688364593200587 0 0 1
397 133 8 -0.82 -25.971981117367594 -4.1747577895638255 -5.084786347555134 0 0 1
398 133 9 0.41 -26.741233587388127 -4.228906920704624 -4.41835118472139 0 0 1
337 113 8 -0.82 -29.221560985377376 -3.4039889829256627 -8.713571060541 0 1 0
2367 789 9 0.41 -32.208128998939095 1.3010121601188 -7.783618518361764 1 0 1
320 107 9 0.41 -18.469077194636817 -6.2292411327178145 -0.6969101338534802 0 0 0
2797 933 8 -0.82 -26.932809910096296 -9.45685452864768 -1.2908264738841222 1 0 0
910 304 8 -0.82 -17.361292869765506 9.189880809619307 -8.150545416943713 0 -1 0
440 147 9 0.41 -27.12768612757159 1.1186226216274893 -3.5328736670805387 0 -1 1
749 250 9 0.41 -30.21027564239926 1.9069149121883218 -6.93982087458614 0 -1 0
750 250 9 0.41 -29.988098915669536 2.495533032638763 -5.41498685056703 0 -1 0
748 250 8 -0.82 -29.680591969698124 2.572738903246915 -6.389748455901751 0 -1 0
338 113 9 0.41 -29.72278966850462 -3.388218621485472 -9.599351255386107 0 1 0
439 147 8 -0.82 -26.369244065839517 0.6593581229850525 -3.0380471007664838 0 -1 1
405 135 9 0.41 -31.238261445497034 3.6098930866855063 -3.9637924776269617 0 0 0
474 158 9 0.41 -21.2288309152107 -4.063684316722346 -1.1179363639351365 0 0 1
404 135 9 0.41 -30.837159840923142 2.2384678609581403 -3.1228825878912634 0 0 0
1020 340 9 0.41 -18.357874401102784 3.883597441432027 -4.067474194344103 0 -1 0
711 237 9 0.41 -26.315528764666553 -0.4691168310126894 -10.35568033012059 0 0 1
509 170 9 0.41 -21.59254714297683 -1.0407167317716173 -7.011964165671 0 0 0
186 62 9 0.41 -30.539447235549495 1.7763333264313363 -1.2114529825122915 0 0 0
508 170 8 -0.82 -21.69662408714182 -2.053822810634909 -6.899969078896428 0 0 0
232 78 8 -0.82 -19.451163932757023 -6.388366554544036 -5.350826582618769 0 0 0
234 78 9 0.41 -18.47992478571505 -6.377839083981321 -5.036071684174994 0 0 0
100 34 8 -0.82 -22.493321846942067 -1.999989173236422 -4.284834104956349 0 -1 0
51 17 9 0.41 -23.43420372774756 -4.022781721291396 -3.9164625498129464 0 0 0
510 170 9 0.41 -22.34163882912561 -2.4407189283201447 -7.590525003720938 0 0 0
92 31 9 0.41 -26.60352352957495 9.408709407542197 -0.40328794646453936 0 0 0
102 34 9 0.41 -21.888195698756576 -1.4959372244255746 -3.64571446787925 0 -1 0
470 157 9 0.41 -29.447194742480075 6.373110489238538 -0.40442602087154 0 -1 0
213 71 9 0.41 -22.655977706095435 3.665330777989226 -4.893755064360877 0 0 0
456 152 9 0.41 -18.201168275051465 -2.5649614698225527 -6.675428653001202 0 0 1
110 37 9 0.41 -23.720628203541267 0.9622034901544705 -4.545923746702848 0 0 0
63 21 9 0.41 -25.723988313745117 -3.733627033059226 -9.827676095800864 0 0 0
111 37 9 0.41 -23.728518196829064 -0.7906217340782167 -4.206825724256875 0 0 0
212 71 9 0.41 -21.82573971841806 4.8441396991872985 -3.93851979922501 0 0 0
174 58 9 0.41 -20.187732724178673 -3.514866806539925 -7.526325072267367 0 0 0
124 42 8 -0.82 -24.464613411506654 -4.303255087246057 -10.827468654144596 0 0 1
126 42 9 0.41 -24.08032606671079 -5.241969622904213 -10.938584079557591 0 0 1
1185 395 9 0.41 -17.93505682458384 10.848304282233048 -1.923316633946703 0 -1 0
44 15 9 0.41 -19.98723855722911 0.45210897553392826 -7.620829843062956 0 1 0
161 54 9 0.41 -23.53092577586132 0.021957686223577966 -9.06230125213726 0 0 0
1033 345 8 -0.82 -23.060889491135995 -2.9736229367965965 -8.96248581578497 0 -1 0
45 15 9 0.41 -20.83132364104199 1.3627399096926514 -6.612934907072824 0 1 0
444 148 9 0.41 -19.82891596968772 0.8559216743123663 -2.0719553267985127 0 0 0
442 148 8 -0.82 -19.296482623014654 1.6968395518935537 -2.301797690645863 0 0 0
109 37 8 -0.82 -24.219793739740467 0.07363252353654559 -4.454596043219605 0 0 0
191 64 9 0.41 -24.03323843226792 2.386272161731121 -6.544283965350148 0 -1 0
190 64 8 -0.82 -24.133784570876138 2.628187013310148 -5.557641108589533 0 -1 0
192 64 9 0.41 -25.006582687972006 3.126759547588895 -5.410572955070184 0 -1 0
160 54 8 -0.82 -23.286605746643353 0.004584850733992951 -10.049045472503332 0 0 0
162 54 9 0.41 -23.41096140085989 -0.9319022574152864 -10.427194597597175 0 0 0
3029 1010 9 0.41 -25.928792357773098 -0.6695104595267107 -7.6669840767981015 1 0 0
3028 1010 8 -0.82 -26.01276401827925 -0.24839515869123296 -8.601724244131182 1 0 0
1035 345 9 0.41 -22.357252669263346 -3.591269578515334 -8.558453424898945 0 -1 0
1034 345 9 0.41 -23.538574225586252 -3.478333001331987 -9.720640485125084 0 -1 0
3030 1010 9 0.41 -25.197417637027115 0.30459368222905425 -8.843636004831797 1 0 0
450 150 9 0.41 -24.422818274254524 2.6752863080436526 -8.8169865790282 0 0 1
43 15 8 -0.82 -20.918658650573214 0.5485984966233097 -7.223837303656586 0 1 0
211 71 8 -0.82 -22.278384902049012 4.6110863345664495 -4.819216928125259 0 0 0
233 78 9 0.41 -19.566226188368326 -6.092385703361154 -6.316480324359024 0 0 0
443 148 9 0.41 -18.848773207119393 2.1147658723422147 -1.4878395841487126 0 0 0
448 150 8 -0.82 -23.883082692807257 2.0451899142130348 -8.218206302958448 0 0 1
791 264 9 0.41 -17.63655743755069 0.4917061166204064 -8.53449187950114 0 0 1
1297 433 8 -0.82 -19.933845437873675 6.766145108413493 -5.3884416706012725 0 -1 0
576 192 9 0.41 -17.487871402905242 -0.6165950381870502 -1.7339269875787 0 0 0
568 190 8 -0.82 -33.112419021250226 0.008738694188279439 -0.42094349673021547 0 0 0
1075 359 8 -0.82 -17.07314835370062 -5.269032194758967 -0.16964241909626132 0 0 0
2838 946 9 0.41 -33.09530828561489 -3.7613301010659805 -7.641702546941456 1 0 1
574 192 8 -0.82 -17.942151309055756 -1.3257013817992327 -1.155920073385996 0 0 0
1363 455 8 -0.82 -19.87522897649668 -8.873915102201856 -10.142321090014926 0 1 1
101 34 9 0.41 -22.112668985065962 -2.170263735970437 -5.218701134072305 0 -1 0
813 271 9 0.41 -17.60697854921756 0.8939817895007298 -3.2806339384221364 0 0 0
58 20 8 -0.82 -31.64653717870676 10.661075075263046 -7.031873873785107 0 -1 0
59 20 9 0.41 -30.997684238543638 9.995030549487055 -7.451352258406198 0 -1 0
451 151 8 -0.82 -32.61451985935125 -10.309797539526523 -9.995480599139785 0 0 0
185 62 9 0.41 -31.67360060639518 0.6453735323311154 -1.1751947440913888 0 0 0
333 111 9 0.41 -27.307721568721345 6.707453457179547 -8.656481123986678 0 0 0
319 107 8 -0.82 -19.06789087434098 -7.036404360215445 -0.8659969675098473 0 0 0
425 142 9 0.41 -33.15045666846611 -8.54845839151237 -10.204015835401323 0 0 1
473 158 9 0.41 -20.277043728752798 -4.197083656872243 -2.526081058128563 0 0 1
331 111 8 -0.82 -27.706657304889003 7.229006619532761 -9.436818576595224 0 0 0
790 264 8 -0.82 -16.987365191987827 -0.2969231743810159 -8.470160811254656 0 0 1
831 277 9 0.41 -22.897044030642537 -10.37008244031167 -0.5042017069222577 0 0 0
726 242 9 0.41 -32.494070920469944 8.177795781066951 -0.8474449177111119 0 0 0
1358 453 9 0.41 -17.753018345216613 8.494535405173597 -5.207895908430207 0 -1 1
225 75 9 0.41 -26.076611751560918 3.947454726827898 -1.881484920548088 0 0 0
2990 997 9 0.41 -33.39011506597205 -10.406942008952958 -0.2719124445434957 1 0 0
29 10 9 0.41 -28.413630141212025 6.317651771218863 -6.957823489401944 0 -1 0
1407 469 9 0.41 -24.403712717560055 -7.080862100855613 -11.031774169361936 0 0 1
77 26 9 0.41 -18.676405727789188 -6.045395452163392 -10.663980266409533 0 0 0
376 126 8 -0.82 -32.69425839289471 -10.618008370263235 -4.413409686922669 0 1 1
438 146 9 0.41 -23.3426127353705 5.532236655869983 -0.7817204879283732 0 0 1
28 10 8 -0.82 -27.98430376899997 5.440259177231493 -7.244406179204712 0 -1 0
725 242 9 0.41 -30.943483073630233 8.395618058709875 -0.3420155334680963 0 0 0
18 6 9 0.41 -28.416508967526095 1.4403426174623029 -9.253782888721469 0 0 0
332 111 9 0.41 -26.899142525939396 7.501988949219026 -9.991453734300263 0 0 0
247 83 8 -0.82 -31.372715907065604 -9.555970754160006 -2.188385286560381 0 0 0
249 83 9 0.41 -32.00798190001842 -9.739892850224031 -1.4131434591979453 0 0 0
302 101 9 0.41 -31.794328772751054 6.420838609405777 -6.05722451502409 0 1 0
248 83 9 0.41 -31.681128659014895 -10.138805167613846 -2.9719379195119693 0 0 0
1506 502 9 0.41 -26.86240336101139 9.341921778838952 -2.8485317933568126 0 -1 0
358 120 8 -0.82 -29.18961673959306 -5.160026323755159 -0.7873034413224147 0 0 0
720 240 9 0.41 -28.833802000979045 6.154549422553849 -2.9237213141549887 0 -1 0
3092 1031 9 0.41 -28.77327589228724 8.579149705703237 -8.621826951828385 1 -1 0
719 240 9 0.41 -29.02254315816756 4.734285150824025 -3.7972199797088892 0 -1 0
2462 821 9 0.41 -30.343517074153787 7.357865581736853 -3.2293850130817745 1 0 0
2463 821 9 0.41 -31.244586261326525 8.237710857513612 -4.4050408126469085 1 0 0
2461 821 8 -0.82 -30.327915292225438 7.9402319652033135 -4.057915657965565 1 0 0
335 112 9 0.41 -17.343514403934538 4.300826906732819 -6.66028472427791 0 0 0
3093 1031 9 0.41 -29.1330479162406 8.800586841418077 -7.033885987703105 1 -1 0
3063 1021 9 0.41 -29.318263690181134 6.096053307331406 -9.717011570408356 1 0 1
419 140 9 0.41 -29.175963327508512 8.086344727470966 -5.007473145994532 0 0 1
3061 1021 8 -0.82 -30.20354691412704 5.7253286170352204 -10.04981540043382 1 0 1
1025 342 9 0.41 -33.31955342858146 9.095266993809155 -6.227947143261798 0 -1 0
1024 342 8 -0.82 -32.910836590173865 8.311854235416725 -5.732332717642051 0 -1 0
1026 342 9 0.41 -33.33798376570032 7.438818166874547 -6.032163789582948 0 -1 0
2798 933 9 0.41 -26.172900076523064 -8.77924622120992 -1.313798569348542 1 0 0
301 101 8 -0.82 -31.799879214558235 5.997068541287405 -6.979952092586899 0 1 0
420 140 9 0.41 -27.5834934523498 8.565922736866678 -5.041465922187424 0 0 1
418 140 8 -0.82 -28.33482822170844 8.152340775375698 -5.5913305816752885 0 0 1
3091 1031 8 -0.82 -29.22213985711408 9.218876955766135 -7.962352708405776 1 -1 0
17 6 9 0.41 -28.913439799669415 2.682438844950628 -8.299074988120644 0 0 0
16 6 8 -0.82 -28.412911242595328 2.4567464907224537 -9.158671704718385 0 0 0
472 158 8 -0.82 -20.491209806068937 -3.651800175467682 -1.6884186341467 0 0 1
718 240 8 -0.82 -28.351841741746597 5.429331312055748 -3.4573762804158292 0 -1 0
377 126 9 0.41 -32.83220867947253 -10.293593742969891 -5.365232369779227 0 1 1
384 128 9 0.41 -25.883058004750993 5.821261750624618 -0.718041875960024 0 0 0
433 145 8 -0.82 -20.320332291649414 5.774138538337191 -8.184095723572574 0 0 1
3038 1013 9 0.41 -26.082698949163188 -4.280933089409975 -1.430969045782799 1 0 0
455 152 9 0.41 -17.23830581397091 -1.3221021523267495 -7.128460439266328 0 0 1
38 13 9 0.41 -28.690295023132737 10.922889996089527 -7.60815305956673 0 0 0
1298 433 9 0.41 -18.94572280316836 6.582387417345153 -5.241128845975143 0 -1 0
362 121 9 0.41 -20.616842164467055 -2.131667530799467 -1.6046398900153598 0 0 0
103 35 8 -0.82 -25.690275127931884 10.678059476956264 -8.651249125201511 0 -1 0
1328 443 9 0.41 -23.648642564329627 9.08136639640044 -4.065813242331168 0 -1 1
316 106 8 -0.82 -20.645243285374754 10.121668419210945 -4.228624981174239 0 -1 0
318 106 9 0.41 -20.715385086607853 10.290568118972192 -3.220103458625516 0 -1 0
259 87 8 -0.82 -20.818187875499312 10.253669201721241 -1.2337912243554108 0 -1 0
1329 443 9 0.41 -22.453572489140285 10.075787693999036 -4.424876527613724 0 -1 1
1327 443 8 -0.82 -23.45898713666474 10.063895436085264 -4.247660582045851 0 -1 1
105 35 9 0.41 -26.16663871343284 10.007718228439458 -8.050146544914318 0 -1 0
1357 453 8 -0.82 -18.11885731577329 9.44917703277957 -5.148340713858166 0 -1 1
723 241 9 0.41 -17.539378019512426 -3.480791676135315 -3.313813717861768 0 0 0
1368 456 9 0.41 -17.016914799987095 -10.60817326402693 -8.737837269102108 0 0 1
360 120 9 0.41 -29.811027881014763 -4.362448807266428 -0.8270614197447639 0 0 0
317 106 9 0.41 -19.833993225826298 9.516612738300054 -4.356458869038379 0 -1 0
434 145 9 0.41 -21.058436124450694 5.901479184149277 -8.878654600879726 0 0 1
341 114 9 0.41 -21.342731082259647 -9.298414816169613 -11.08338018165119 0 0 1
391 131 8 -0.82 -18.730177260551947 2.080617999148517 -8.595811798871285 0 0 1
204 68 9 0.41 -19.60889450967769 9.32805409067744 -10.125488287883856 0 -1 0
203 68 9 0.41 -20.404217428411393 9.269707023677828 -8.56738328415328 0 -1 0
1299 433 9 0.41 -20.201734248029908 6.325772997614131 -6.262827874628859 0 -1 0
3051 1017 9 0.41 -29.136802598787472 3.423627556874534 -0.9909330834235845 1 0 0
763 255 8 -0.82 -21.878675635941285 2.3563343621218777 -10.803720603243567 0 -1 1
392 131 9 0.41 -19.572586664873416 2.6122323896965742 -8.385274893035376 0 0 1
493 165 8 -0.82 -20.97735574291216 5.972912583329627 -2.148318198163347 0 0 1
469 157 8 -0.82 -29.365643835792927 7.116673955125567 -1.1005476194577053 0 -1 0
495 165 9 0.41 -20.014968277747826 5.961020273564518 -1.8254213130454993 0 0 1
2836 946 8 -0.82 -32.574372238059645 -3.7991581929773828 -8.51714659580686 1 0 1
393 131 9 0.41 -17.880103957173368 2.5819062147654126 -8.327247382955942 0 0 1
30 10 9 0.41 -28.59809877484333 4.669214735210813 -6.976639100157852 0 -1 0
449 150 9 0.41 -22.91843172146618 2.323662041400194 -8.025293706257528 0 0 1
657 219 9 0.41 -21.899097322170775 4.148537459627301 -10.47750428908558 0 -1 1
1522 508 8 -0.82 -26.1350569125358 4.612018302767057 -4.721283371507063 0 -1 0
295 99 8 -0.82 -24.457784689205326 6.705674117086822 -5.837665731829084 0 0 0
383 128 9 0.41 -24.886442313460577 7.140035176801767 -1.2674354173952782 0 0 0
655 219 8 -0.82 -22.02287412533759 5.159893800772085 -10.379628774832586 0 -1 1
435 145 9 0.41 -19.609135273434788 6.490449660297685 -8.29369872762543 0 0 1
382 128 8 -0.82 -25.00436699306236 6.33565035760801 -0.6544144713538902 0 0 0