LAMMPS data file via write_data, version 2 Aug 2023, timestep = 20000, units = real

6150 atoms
9 atom types
4100 bonds
7 bond types
2050 angles
8 angle types
0 dihedrals
4 dihedral types

-41.79871682567621 41.79871682567621 xlo xhi
-13.932905608558972 13.932905608558972 ylo yhi
-13.932905608558972 13.932905608558972 zlo zhi

Masses

1 15.9994
2 12.011
3 1.008
4 1.008
5 12.011
6 15.9994
7 15.9994
8 15.9994
9 1.008

Pair Coeffs # lj/cut/coul/long

1 0.2526 2.8492
2 0.0663 3.5812
3 0.0283 2.3734
4 0 0
5 0.245 2.8114
6 0.1195 3.1
7 0.1195 3.1
8 0.155 3.165
9 0 0

Bond Coeffs # harmonic

1 1109.29 1.12
2 399.792 1.43
3 299.844 1.52
4 400.034 1.53
5 310.707 1.41
6 179.254 0.971
7 529.581 1.012

Angle Coeffs # harmonic

1 47.694 109.5
2 55.1271 109.5
3 47.635 109.6
4 55.1139 111
5 54.9931 110.3
6 180.46 109
7 30.1731 110
8 37.95 113.24

Dihedral Coeffs # harmonic

1 0.3011 1 3
2 1.4149 1 3
3 0.239 -1 3
4 0 1 1

Atoms # full

5273 1758 9 0.41 -39.9772555836625 7.240510066776789 -8.337264792579077 1 0 0
1031 344 9 0.41 -40.77308418291675 -9.445689403740046 -12.33503783544523 0 0 1
1911 637 9 0.41 -23.35899926580986 -8.198648232151946 -0.594437114712985 0 0 0
1451 484 9 0.41 -37.83955674002729 -7.502340813792013 -11.667187896090406 0 1 1
1452 484 9 0.41 -38.58476914758715 -7.892801559957129 -10.205744556668643 0 1 1
1450 484 8 -0.82 -37.68894084568091 -7.61117619288552 -10.658153165598424 0 1 1
5389 1797 8 -0.82 -35.67186095144031 -10.341611842405216 -11.342886230997632 1 1 0
5390 1797 9 0.41 -35.165428888562886 -9.788234009575312 -10.635344613619118 1 1 0
261 87 9 0.41 -32.16664253942117 -10.469736973083563 -13.325312535136275 0 0 0
5391 1797 9 0.41 -35.15549695574719 -11.168014427912373 -11.679523838256177 1 1 0
5434 1812 8 -0.82 -39.10367649643404 -12.594120864662605 -6.951851177136931 1 0 1
5435 1812 9 0.41 -39.72758117177518 -13.191960588074242 -6.394705180100521 1 0 1
568 190 8 -0.82 -33.889500961057685 -9.168929624656638 -9.874590797738414 0 1 0
578 193 9 0.41 -37.06101703688696 -10.925102302991462 -11.76210346074922 0 0 0
5436 1812 9 0.41 -38.73626009036449 -11.765048557229921 -6.439677107171152 1 0 1
1030 344 8 -0.82 -41.62416788029199 -9.751487689883318 -12.792704183466375 0 0 1
4916 1639 9 0.41 -36.8483843960909 -8.114385833573484 -9.394714089977182 1 1 0
4917 1639 9 0.41 -35.46978635480965 -8.691207165389566 -8.619803186413154 1 1 0
541 181 8 -0.82 -34.63566059200923 -13.089118276893814 -7.669286285341678 0 1 0
1109 370 9 0.41 -37.02942724629629 -13.024659813799213 -1.539891851712916 0 1 0
4986 1662 9 0.41 -38.85275037640591 -12.746054653393708 -9.1878400971592 1 1 0
4680 1560 9 0.41 -35.02329009758163 13.845831106394371 -10.52445367594691 1 0 0
1105 369 8 -0.82 -33.41616498895401 13.278852321876101 -1.2012085428480415 0 0 0
4679 1560 9 0.41 -34.23884603798691 -13.567732060068499 -9.208340163875304 1 1 0
71 24 9 0.41 -35.39117453666171 -8.899345240661098 -12.768226135825985 0 1 0
4678 1560 8 -0.82 -34.10980045053182 13.748594967713249 -10.06878959422259 1 0 0
577 193 8 -0.82 -37.881653300564224 -11.434248024156958 -12.141713401100727 0 0 0
4985 1662 9 0.41 -38.57707324920752 -13.788330737573059 -10.37192583749403 1 1 0
4984 1662 8 -0.82 -38.90072485400495 -12.819069745219338 -10.221669733627605 1 1 0
416 139 9 0.41 -38.901318812863266 2.008768386199103 -11.134855420640719 0 0 0
5024 1675 9 0.41 -40.72370125253906 -8.191904840122932 -8.84610713540324 1 0 0
579 193 9 0.41 -38.54158308050425 -11.720401579505968 -11.41212933599729 0 0 0
569 190 9 0.41 -33.65401633967794 -9.733709088100737 -9.029438317089266 0 1 0
499 167 8 -0.82 -31.092027198569227 -9.437148369393194 -9.658666092435976 0 0 0
500 167 9 0.41 -30.080122135092633 -9.554596108030957 -9.531330801420888 0 0 0
259 87 8 -0.82 -31.96196954151027 -10.517206379198285 -12.312552635982396 0 0 0
501 167 9 0.41 -31.426223241709458 -10.005220792917724 -10.451855680968944 0 0 0
260 87 9 0.41 -30.962340321054647 -10.45877320925106 -12.131496994556139 0 0 0
1465 489 8 -0.82 -33.83582497472809 -10.324463416094384 -7.330384255869358 0 0 1
188 63 9 0.41 -31.43124831690994 -12.437078586391898 -7.303375592715831 0 0 0
399 133 9 0.41 -33.15262779556528 -11.796322961451699 -12.400886816978836 0 1 0
570 190 9 0.41 -32.926656670409216 -9.141885582903221 -10.20974599588051 0 1 0
397 133 8 -0.82 -33.82950407650523 -12.541701244215107 -12.672392643055847 0 1 0
189 63 9 0.41 -30.992334828004104 -12.195695755605755 -8.903226469082634 0 0 0
187 63 8 -0.82 -30.74060194074127 -11.991075327040223 -7.930357912984718 0 0 0
1924 642 8 -0.82 -28.394035261885264 -11.602647028369542 -7.1607082749700055 0 1 0
469 157 8 -0.82 -28.620087720285163 -11.002206549187312 -9.98572702850231 0 0 0
470 157 9 0.41 -29.143918994970328 -11.401248268096051 -9.1919175857584 0 0 0
155 52 9 0.41 -27.392132259823597 -10.172744565594847 -7.602490264104337 0 1 0
154 52 8 -0.82 -26.975399603578477 -9.644957089130234 -8.387336975520242 0 1 0
45 15 9 0.41 -28.102334756166904 -8.787720831991757 -11.759905677114485 0 0 0
1380 460 9 0.41 -31.32485128445371 -7.683964955934183 -8.953105978591491 0 0 1
1378 460 8 -0.82 -31.192462710019 -6.777272478586045 -8.497350370650068 0 0 1
398 133 9 0.41 -33.33695665896862 -12.943938340851622 -13.510665627712934 0 1 0
46 16 8 -0.82 -41.60391001995095 3.375818680070598 -3.7626679632788047 0 0 0
1467 489 9 0.41 -32.83931926934895 -10.190364073163337 -7.0705482546690614 0 0 1
1466 489 9 0.41 -34.2309811135615 -9.615907683773543 -6.707835623322571 0 0 1
864 288 9 0.41 -41.45789634457043 -3.634911089124591 -2.6886771535496674 0 0 0
471 157 9 0.41 -28.07093059468687 -10.248760117418557 -9.518914185088278 0 0 0
1303 435 8 -0.82 -22.099124734761954 11.415937463507273 -0.32787686949670025 0 0 0
2105 702 9 0.41 -23.298675501630576 -9.30357390350556 -6.368276713676001 0 0 0
2104 702 8 -0.82 -23.352070527278723 -9.23261961210994 -7.378796190645751 0 0 0
2106 702 9 0.41 -22.366073274865766 -9.057584417237047 -7.665765888295719 0 0 0
692 231 9 0.41 -25.34765096458922 -10.879852938148503 -11.332279343282067 0 1 0
78 26 9 0.41 -24.77220816682984 -11.111081500074524 -6.879168534326072 0 1 0
691 231 8 -0.82 -24.900065892580475 -11.299278966323836 -10.50189298952159 0 1 0
156 52 9 0.41 -26.000488000822664 -9.637116413328183 -8.154001234169403 0 1 0
548 183 9 0.41 -30.728065035828912 -13.293634206068036 -10.507947817034317 0 1 0
766 256 8 -0.82 -26.020687469614778 -10.57764261357474 -12.781589030889206 0 1 0
278 93 9 0.41 -22.027400813633957 -10.581636893072728 -9.62061135550347 0 0 0
2987 996 9 0.41 -23.768572462777843 -8.166735293091604 -11.207973862884208 0 0 1
277 93 8 -0.82 -22.316910125448715 -11.359963223138669 -10.24096771392754 0 0 0
693 231 9 0.41 -25.50567756660127 -11.424676728565968 -9.698775957784925 0 1 0
279 93 9 0.41 -23.361375466083526 -11.390544520717224 -10.080279183348631 0 0 0
77 26 9 0.41 -24.791795371026716 -12.678385791004281 -6.464958259400973 0 1 0
76 26 8 -0.82 -25.195890041037945 -11.759049059296007 -6.212983674195388 0 1 0
360 120 9 0.41 -30.02368702721651 -10.155355159447037 -6.559044626401539 0 1 0
2988 996 9 0.41 -24.583754720971488 -9.084986405550744 -12.284135226414925 0 0 1
64 22 8 -0.82 -24.8624040717526 3.7101352140101476 -0.4761078343791443 0 0 0
1926 642 9 0.41 -27.978157329131776 -12.27428126890515 -6.476544628359105 0 1 0
2986 996 8 -0.82 -24.61278052070601 -8.187217919102226 -11.798828647473957 0 0 1
2895 965 9 0.41 -26.889325266439194 -8.744062165768742 -9.693334404922282 0 0 1
547 183 8 -0.82 -31.599307339599427 -12.764103362812866 -10.372559013825452 0 1 0
165 55 9 0.41 -41.41643938658499 5.263247842956666 -6.308883059761384 0 0 0
767 256 9 0.41 -26.791175987329616 -9.979358219073712 -13.01896754672449 0 1 0
43 15 8 -0.82 -28.553556656805313 -9.090188796945927 -12.645640838918336 0 0 0
67 23 8 -0.82 -22.11093106056305 -7.262105947400038 -10.784037727658793 0 1 0
110 37 9 0.41 -32.73003123230781 -4.084507899506857 -0.6002363786980087 0 1 0
4915 1639 8 -0.82 -36.30524093215046 -8.126442781318282 -8.515379764251984 1 1 0
2298 766 9 0.41 -21.34597633912554 -9.451199918880674 -12.089308804237135 0 1 0
554 185 9 0.41 -40.823875814188284 -4.518238737098926 -9.936116711435291 0 0 0
1011 337 9 0.41 -36.34372402959973 -10.513286542858856 -0.9874224835408487 0 1 0
178 60 8 -0.82 -38.331519733759094 -0.8264463392168473 -13.427598167532407 0 0 0
60 20 9 0.41 -28.1146418808913 8.572504984198307 -2.0150992141695276 0 0 0
653 218 9 0.41 -37.979734863830586 -4.81707656925545 -6.740097056294738 0 0 0
652 218 8 -0.82 -37.82400442566121 -3.8062041978672987 -6.789448513749746 0 0 0
654 218 9 0.41 -38.471361693322166 -3.249187099739 -7.3659578971025095 0 0 0
5081 1694 9 0.41 -41.62743789607662 0.8719667173961039 -11.148462566239248 1 0 0
943 315 8 -0.82 -37.20415278769065 -2.4978231322215674 -11.366772939030355 0 0 1
944 315 9 0.41 -37.04637705681584 -3.1581364218120367 -10.595928809246722 0 0 1
945 315 9 0.41 -37.86127974304174 -1.746787870850273 -10.990286063782635 0 0 1
566 189 9 0.41 -40.15192717944815 -4.724479416048069 -12.470991978137366 0 0 0
594 198 9 0.41 -35.145563464841885 -3.2893282871425154 -6.64271312972569 0 1 0
567 189 9 0.41 -39.221381356512325 -4.826449750156307 -11.115686730377295 0 0 0
565 189 8 -0.82 -40.089985203777005 -4.411950937755822 -11.487173389847083 0 0 0
816 272 9 0.41 -36.37759564771237 -0.7271837862537804 -10.888926129747375 0 0 1
734 245 9 0.41 -40.68152018141802 -2.44183629962742 -7.8845957434652245 0 0 0
733 245 8 -0.82 -39.72632342597004 -2.485325335815368 -8.244590701475577 0 0 0
815 272 9 0.41 -35.064471930330946 0.17018158827009344 -10.404638081670354 0 0 1
814 272 8 -0.82 -35.961180143813884 0.20478882466992054 -10.937525761953502 0 0 1
593 198 9 0.41 -34.7774876109516 -2.231190275215699 -5.494130721067172 0 1 0
415 139 8 -0.82 -39.84333324059295 1.643510521943682 -10.834261036891663 0 0 0
592 198 8 -0.82 -34.33002146076596 -2.8918057063740434 -6.147804631079334 0 1 0
180 60 9 0.41 -38.09809470007123 -1.7047603637530084 -12.989006192425629 0 0 0
5530 1844 8 -0.82 -39.32157206139336 -1.0317339628652764 -10.725420133135842 1 0 1
615 205 9 0.41 -38.075276275144915 -0.22510743957646717 -7.5520041306337555 0 0 0
5532 1844 9 0.41 -39.575100147896336 -0.7641274211659521 -11.684734145317309 1 0 1
5531 1844 9 0.41 -39.690163043499254 -0.15962256281913945 -10.304410093151395 1 0 1
5023 1675 8 -0.82 -40.23542671387431 -7.356298142625072 -9.182200029236471 1 0 0
4860 1620 9 0.41 -40.62171694396231 -13.348029263025666 -1.7787441890516789 1 1 0
4732 1578 8 -0.82 -41.156604651605285 -13.62525545064539 -0.14091636386640083 1 0 0
117 39 9 0.41 -33.02167062030934 0.7321665944135063 -6.4835518235962 0 0 0
330 110 9 0.41 -41.479660264524156 -6.870945646057193 -10.939455161274001 0 0 0
4864 1622 8 -0.82 -41.75814679665261 -12.689712978397676 -5.183751377374529 1 1 0
4857 1619 9 0.41 -34.765816626433065 -6.582544514377342 -9.188014324026359 1 0 0
4856 1619 9 0.41 -33.593569039717124 -5.327159578121243 -9.056890271571035 1 0 0
4855 1619 8 -0.82 -34.376539420553655 -5.696752829404909 -9.588260120264117 1 0 0
244 82 8 -0.82 -36.77483792856434 -4.346552047543867 -9.488560249812743 0 0 0
246 82 9 0.41 -35.80403704641544 -4.6531259759633805 -9.657695845687655 0 0 0
32 11 9 0.41 -29.2183486052136 -5.601012145147596 -10.71180732159145 0 0 0
245 82 9 0.41 -37.036661238312384 -4.129972904962397 -8.493889900929853 0 0 0
443 148 9 0.41 -31.061316430544217 -1.6310815006760606 -13.251900793885975 0 0 0
1213 405 8 -0.82 -28.909601207232747 0.3803995603195798 -9.36584581305068 0 0 1
442 148 8 -0.82 -31.47838982848646 -1.190288742484416 -12.422228171733936 0 0 0
444 148 9 0.41 -31.02743586988553 -1.6280012207104892 -11.616146248273063 0 0 0
33 11 9 0.41 -30.344915157353647 -4.634614912428884 -11.058430299252407 0 0 0
31 11 8 -0.82 -30.22604930886781 -5.507768416296091 -10.511155392230087 0 0 0
827 276 9 0.41 -28.581307657305373 -1.2849565733946147 -10.06156679390377 0 0 1
177 59 9 0.41 -31.805900132855776 -5.97617232800871 -11.303409621360856 0 0 0
175 59 8 -0.82 -32.728063471128024 -5.895312122777431 -11.750704405988348 0 0 0
176 59 9 0.41 -33.41682058153047 -5.944025217661764 -10.995033924951192 0 0 0
895 299 8 -0.82 -29.892040453160337 -2.7350832238258587 -7.472000976057009 0 0 1
896 299 9 0.41 -29.463559825324133 -3.565947342021749 -7.860670668921454 0 0 1
685 229 8 -0.82 -29.693631307010513 -3.4907186620911865 -12.19201413464372 0 0 0
1379 460 9 0.41 -30.682189740133147 -6.239879691498404 -9.238677392919728 0 0 1
826 276 8 -0.82 -28.31611758096105 -2.2621090005972935 -10.229875506194901 0 0 1
686 229 9 0.41 -29.09704562161938 -2.9942903623272628 -11.482460660369473 0 0 0
1230 410 9 0.41 -33.100634187049266 -2.443085513519293 -12.676933723643735 0 0 1
1228 410 8 -0.82 -33.75672918708055 -3.2017431339639977 -12.789556432408686 0 0 1
368 123 9 0.41 -29.704699233279158 -6.218265897409617 -7.661434888404631 0 1 0
4775 1592 9 0.41 -31.6734375016459 -4.914410926795611 -7.765300736984703 1 0 0
1266 422 9 0.41 -40.454578617735436 4.169981941891159 -13.603975542045479 0 0 1
5067 1689 9 0.41 -41.49577499222124 -6.963873677776325 -5.476262144068928 1 0 0
752 251 9 0.41 -25.62526033145962 -4.062554232930198 -8.296568368009488 0 0 0
687 229 9 0.41 -29.098288656933534 -3.742668343936879 -12.979054872772869 0 0 0
1336 446 8 -0.82 -36.60162938394918 -4.0961838827227375 -13.512400232556848 0 0 1
1283 428 9 0.41 -26.585472343368153 -6.821048729636273 -0.3552842004103791 0 0 0
1072 358 8 -0.82 -41.71825369253522 -9.650902221519981 -8.866950414290894 0 0 1
3034 1012 8 -0.82 -25.3751716274251 -1.5218647937329557 -11.821411283811425 0 0 1
3036 1012 9 0.41 -25.372656479357566 -1.7260769477117144 -12.847979464785176 0 0 1
1980 660 9 0.41 -25.04430755686035 -5.8277919867303485 -12.827886539634264 0 0 0
1119 373 9 0.41 -23.58400596137683 -1.5533515915032918 -11.211953205338945 0 0 1
3035 1012 9 0.41 -26.087884169058206 -0.7945727664494413 -11.609867515624643 0 0 1
2893 965 8 -0.82 -27.19519811641334 -8.166131032398816 -10.503786136740786 0 0 1
2894 965 9 0.41 -26.24929632804166 -7.854114897066838 -10.722455862982104 0 0 1
1032 344 9 0.41 -41.727842446838686 -10.776438323156626 -12.714496993213151 0 0 1
1117 373 8 -0.82 -22.639110425658053 -1.2516849301400992 -11.471051189655459 0 0 1
828 276 9 0.41 -27.63231570914403 -2.6467355160211525 -9.561905049213161 0 0 1
4625 1542 9 0.41 -41.643309339823986 9.728870295169997 -12.047414149482897 1 -1 0
403 135 8 -0.82 -23.08557805025208 0.8441141913065113 -9.760027522086167 0 0 0
404 135 9 0.41 -23.79123132552912 1.5763453191621828 -9.621756093393254 0 0 0
1978 660 8 -0.82 -24.65280509470565 -5.67720187890041 -13.772676955365544 0 0 0
1647 549 9 0.41 -21.820439740220426 -3.00222376312931 -11.030966256266591 0 0 0
204 68 9 0.41 -24.550152068317633 -5.6716416899698086 -7.977810713897426 0 0 0
2885 962 9 0.41 -21.613136509989495 5.504674344752804 -10.008403006027034 0 0 1
1118 373 9 0.41 -22.664500530159426 -0.32439966028434775 -11.034172756313277 0 0 1
379 127 8 -0.82 -26.79079622476405 0.7492368560580882 -10.973926827548498 0 0 0
1171 391 8 -0.82 -27.811666491251327 -5.569750541025305 -11.64378932590736 0 0 1
68 23 9 0.41 -21.949687529026924 -6.762169375082748 -9.911895671061687 0 1 0
202 68 8 -0.82 -24.34827778972178 -4.8464924967779925 -8.555073897900211 0 0 0
203 68 9 0.41 -24.303616406657788 -4.9293572005537545 -9.59288760059796 0 0 0
1357 453 8 -0.82 -29.403554440266802 10.658058363087548 -0.2945006244285171 0 -1 0
1237 413 8 -0.82 -25.33228723249903 -4.34640035287474 -11.090393039064242 0 0 1
1238 413 9 0.41 -25.206485964897343 -3.379964442795103 -11.3825655384897 0 0 1
1239 413 9 0.41 -26.304164395563806 -4.6370116099016485 -11.245112464502697 0 0 1
2245 749 8 -0.82 -21.575906661149123 10.095551962435628 -6.812598097533629 0 0 0
1172 391 9 0.41 -27.700574547928284 -6.543865160711346 -11.324628330430146 0 0 1
2796 932 9 0.41 -21.703399106561744 -0.9180992561527681 -12.906085774669727 0 0 1
1173 391 9 0.41 -27.969351324293925 -5.738465825919302 -12.64489951165182 0 0 1
1110 370 9 0.41 -37.132034968732285 13.234419865550056 -1.1354545425515 0 0 0
2553 851 9 0.41 -21.89751207947289 8.814258738788773 -12.43221989105009 0 0 1
735 245 9 0.41 -39.75032553139483 -2.511181978525494 -9.279812303089688 0 0 0
5278 1760 8 -0.82 -41.06693274745785 -5.20250560055722 -0.8828777513893087 1 0 0
5007 1669 9 0.41 -40.947552242895206 1.527286674571835 -7.413761360761109 1 0 0
5955 1985 9 0.41 -37.83866977716601 2.6221583234222443 -13.412656947451532 1 0 1
417 139 9 0.41 -40.06648452078831 1.9999732756008761 -9.908029268067512 0 0 0
614 205 9 0.41 -38.718547542889425 1.3589801114912845 -7.731672539249157 0 0 0
88 30 8 -0.82 -35.808644333331316 2.1671935558610933 -6.924354727624125 0 0 0
90 30 9 0.41 -36.556474021160035 1.4483750655024803 -7.092359065329008 0 0 0
1059 353 9 0.41 -36.71568268388157 2.962828428107919 -10.596340646868953 0 0 1
1057 353 8 -0.82 -37.392656236804 2.672135307055445 -11.301943147611325 0 0 1
613 205 8 -0.82 -37.958535521939126 0.7641210103468143 -7.348168541805912 0 0 0
5006 1669 9 0.41 -40.61817078454501 2.991349689592532 -8.189323911107154 1 0 0
5025 1675 9 0.41 -40.804251016715774 -6.63845323506628 -8.713092860586364 1 0 0
5005 1669 8 -0.82 -40.19721984161575 2.1053597889687623 -7.876170671956746 1 0 0
252 84 9 0.41 -36.171518837706124 3.4743948946432894 -8.242499032689903 0 0 0
1106 369 9 0.41 -32.700927654872736 12.529770939272396 -1.2871354701045377 0 0 0
5211 1737 9 0.41 -37.480452675716656 7.185138451399194 -8.800796354495029 1 0 0
1010 337 9 0.41 -34.8573632732636 -11.056406591158574 -0.747938382967785 0 1 0
5932 1978 8 -0.82 -37.97203462825564 5.8986214491599895 -11.57146252409422 1 0 1
6141 2047 9 0.41 -41.04955600947847 -3.072332642588325 -11.166314435389678 1 0 1
719 240 9 0.41 -37.82426687198062 7.733122812653676 -10.6913879654889 0 0 0
1058 353 9 0.41 -37.182561992904205 1.652290224714207 -11.234686642110246 0 0 1
5934 1978 9 0.41 -38.41472233504522 6.571079303379509 -12.199567130500643 1 0 1
737 246 9 0.41 -36.38641784206904 5.736208499143849 -11.61333743542384 0 0 0
1453 485 8 -0.82 -21.902544561451045 -4.762006113661863 -13.791420546523186 0 0 1
5933 1978 9 0.41 -38.49966489199436 5.027849709054976 -11.67177332876922 1 0 1
4 2 8 -0.82 -38.56919448002951 5.127846230169762 -6.215386488978412 0 0 0
5 2 9 0.41 -38.14687712871414 5.664466845794209 -7.011821626975515 0 0 0
5210 1737 9 0.41 -37.14161362947667 5.582328500047478 -9.055416068754491 1 0 0
5209 1737 8 -0.82 -37.48652490237329 6.255042636452494 -8.380592545872767 1 0 0
6053 2018 9 0.41 -39.218374322074695 9.610477410748334 -12.713107173231604 1 0 1
164 55 9 0.41 -40.16203279327591 4.4296412689773526 -7.035983957489278 0 0 0
872 291 9 0.41 -23.760134781074687 5.07500777549129 -6.266890020210746 0 0 1
736 246 8 -0.82 -35.36788915689476 5.638870524864814 -11.83180539579496 0 0 0
1498 500 8 -0.82 -28.934499915291063 5.79985327806132 -12.832201920942607 0 0 1
716 239 9 0.41 -41.727286712459836 12.961560304864367 -7.7005294644747 0 0 0
331 111 8 -0.82 -33.012607119572635 1.153507768804653 -12.537849692032573 0 0 0
1214 405 9 0.41 -29.178534781796607 1.3169061392676422 -9.68220172013613 0 0 1
332 111 9 0.41 -32.3208265596383 0.40320572507131125 -12.401990454308145 0 0 0
738 246 9 0.41 -34.83186343807607 6.493104146836149 -11.714066118394644 0 0 0
89 30 9 0.41 -35.95572966879485 2.9253726947444747 -6.252960686073795 0 0 0
1275 425 9 0.41 -35.28142166105845 7.951726882965698 -11.383993950032878 0 0 1
250 84 8 -0.82 -35.88141628430525 3.852586439236383 -9.152351792923536 0 0 0
1360 454 8 -0.82 -33.05623579586183 -0.9861582002312588 -8.299514507298687 0 0 1
1361 454 9 0.41 -33.46907194754739 -0.6478287628536705 -7.43492112826745 0 0 1
526 176 8 -0.82 -29.309590553247496 3.0258550787035965 -9.33106086007579 0 0 0
528 176 9 0.41 -30.118510188653598 3.6187755889558844 -9.608827557523783 0 0 0
1362 454 9 0.41 -33.14935278861623 -1.999438674306596 -8.41901703401095 0 0 1
1088 363 9 0.41 -33.570108749336725 2.556095887497719 -11.76535769740411 0 0 1
258 86 9 0.41 -32.03210238115309 2.324091322925245 -8.690289161091801 0 0 0
1087 363 8 -0.82 -33.65002555429638 3.3285437151887187 -11.068774960211572 0 0 1
1089 363 9 0.41 -33.93638891277272 4.23138463318541 -11.491036416911921 0 0 1
618 206 9 0.41 -29.696731257939714 7.6850227338273065 -9.008859310136778 0 0 0
616 206 8 -0.82 -28.940797296568153 7.524116503663937 -9.675987810778286 0 0 0
696 232 9 0.41 -29.962968070638617 7.115063419083466 -13.13075415806896 0 0 0
617 206 9 0.41 -28.980895969371367 6.568501537723044 -10.075521370927834 0 0 0
256 86 8 -0.82 -32.21862515741462 3.2762215012912 -8.990144409665962 0 0 0
349 117 8 -0.82 -32.78696395810405 5.279189098544297 -7.149207761479611 0 0 0
251 84 9 0.41 -34.87653717794318 3.9053883469971495 -9.132364377098279 0 0 0
350 117 9 0.41 -32.71698270119271 4.988497348866378 -8.118655081654044 0 0 0
694 232 8 -0.82 -30.72992527731979 7.818822618207044 -13.098981305053668 0 0 0
257 86 9 0.41 -32.81237461498967 3.3279140994710943 -9.857049841615424 0 0 0
677 226 9 0.41 -27.843324642290018 8.172283833170582 -10.760215240113824 0 0 0
695 232 9 0.41 -31.5903210960822 7.311224227800459 -13.29302662703064 0 0 0
1500 500 9 0.41 -29.010787626605627 5.256458334097381 -13.691328729959192 0 0 1
648 216 9 0.41 -32.050031395343865 -5.427347735765361 -13.675298138726411 0 0 0
3049 1017 8 -0.82 -23.519462905363692 1.526788784356219 -12.923270248296856 0 0 1
2238 746 9 0.41 -24.160728424161096 4.415878517269569 -10.370817874361158 0 0 0
15 5 9 0.41 -22.40612458183077 6.034201668182494 -12.34932110003272 0 0 0
4865 1622 9 0.41 -41.15987066908649 -13.002067747393559 -4.409736377734248 1 1 0
537 179 9 0.41 -27.46272587071764 3.0589190065946283 -12.908556101418537 0 0 0
1001 334 9 0.41 -32.851266559101035 12.478645130786838 -13.560441167078693 0 0 1
761 254 9 0.41 -27.798912239584944 3.59124114960969 -10.627612977593031 0 0 0
676 226 8 -0.82 -26.981987031372093 8.279469589578866 -11.346270558761642 0 0 0
381 127 9 0.41 -27.720229198718826 0.604830444444282 -10.550624053190644 0 0 0
380 127 9 0.41 -26.126691426850158 0.9976004307294613 -10.234685038552122 0 0 0
760 254 8 -0.82 -27.28012206439469 4.284337789328113 -11.1839088451209 0 0 0
762 254 9 0.41 -26.24667971937466 4.115916153170787 -11.158453106550908 0 0 0
13 5 8 -0.82 -23.348294782109104 5.922085646411507 -12.719034599549776 0 0 0
1205 402 9 0.41 -24.996565253399012 6.918152005694125 -13.355323869081355 0 0 1
1417 473 8 -0.82 -25.058629215921737 6.509007089298219 -10.100602387507799 0 0 1
1418 473 9 0.41 -25.407252513821625 5.901222599394057 -9.344368441275268 0 0 1
1419 473 9 0.41 -25.810969437475386 6.991503328590312 -10.584641900421666 0 0 1
2884 962 8 -0.82 -21.916925607065277 4.537801121856344 -9.89954264794179 0 0 1
2236 746 8 -0.82 -24.77186516989054 3.6568522583603844 -10.69783890457722 0 0 0
17 6 9 0.41 -22.84380753800239 7.072770964468457 -7.403563196625454 0 0 0
2571 857 9 0.41 -25.33211123775962 2.6387713859604425 -9.130580624814343 0 0 0
2569 857 8 -0.82 -25.569404166884166 1.687723844756368 -8.822131768041466 0 0 0
14 5 9 0.41 -24.03742049416701 6.197616297401758 -12.039504408399202 0 0 0
16 6 8 -0.82 -22.117831482886572 7.329084405335159 -6.726229342469321 0 0 0
5871 1957 9 0.41 -40.683033072924964 12.968454962964024 -10.656194032521306 1 0 1
2237 746 9 0.41 -24.20774557890189 3.040839114425591 -11.288966154522244 0 0 0
2133 711 9 0.41 -26.607505743735373 4.247590631007608 -7.479000867280098 0 0 0
2131 711 8 -0.82 -26.111142100061684 4.960591769270735 -8.02513669791443 0 0 0
2132 711 9 0.41 -26.67145706512249 5.8109909387620355 -8.136036892569956 0 0 0
2570 857 9 0.41 -25.836892021707573 1.7038589892532663 -7.855993111789477 0 0 0
3051 1017 9 0.41 -23.928857895965113 0.5839818199776019 -12.908712476228542 0 0 1
5606 1869 9 0.41 -40.37162193595382 9.332754345845203 -9.58226924527408 1 0 1
5607 1869 9 0.41 -40.146817878020244 10.566300755805994 -8.522309148237422 1 0 1
708 236 9 0.41 -37.171066426075754 9.971660390598139 -11.18897358375455 0 0 0
707 236 9 0.41 -36.02665849489882 10.994329097842382 -10.497330290536574 0 0 0
446 149 9 0.41 -40.502265690866025 0.24110198213408474 -4.581936355965098 0 0 0
5272 1758 8 -0.82 -39.87166314811561 7.770398541060196 -7.460707398449394 1 0 0
6108 2036 9 0.41 -38.56620150927102 9.193196456365637 -6.753771696248487 1 0 1
720 240 9 0.41 -38.38057275232449 9.131692215639152 -10.006333877829269 0 0 0
382 128 8 -0.82 -36.247296803098436 -13.528210783091954 -11.50102891562198 0 1 0
6106 2036 8 -0.82 -37.55457634974526 9.394294242952888 -6.746218201779951 1 0 1
428 143 9 0.41 -36.84547511834854 -8.066909694001403 -0.4235191210899014 0 0 0
609 203 9 0.41 -37.316797679532954 12.287561855871697 -9.129874871737556 0 0 0
718 240 8 -0.82 -37.51622028781853 8.570790073978618 -10.195221707477552 0 0 0
4852 1618 8 -0.82 -35.522345755913214 11.706437465981669 -8.964643769930007 1 0 0
4854 1618 9 0.41 -35.054410072298566 11.251684214252109 -8.18836367234608 1 0 0
5122 1708 8 -0.82 -33.116378607430704 12.101792996158423 -7.340098757815214 1 0 0
5123 1708 9 0.41 -33.15256466809243 13.101212706061098 -7.134180623103717 1 0 0
5970 1990 9 0.41 -37.70710038487748 12.526882017257982 -7.540857412155626 1 0 1
607 203 8 -0.82 -38.32934454505884 12.345870616187632 -9.19016998500113 0 0 0
608 203 9 0.41 -38.795425429257705 11.414428749321 -9.394576842956962 0 0 0
384 128 9 0.41 -35.44702629840443 -13.275485887139018 -12.101386037760122 0 1 0
383 128 9 0.41 -37.04515886655437 -12.965634959409373 -11.759409653599384 0 1 0
5124 1708 9 0.41 -32.19504865998225 11.88541170347941 -6.908830103533211 1 0 0
638 213 9 0.41 -39.660613095291154 12.338663973547312 -6.8260617638772265 0 0 0
476 159 9 0.41 -36.24249596720586 11.546344027085045 -12.722291019412877 0 0 0
1009 337 8 -0.82 -35.84106916804092 -11.39804023305621 -0.8143756347879361 0 1 0
228 76 9 0.41 -35.52141640538316 7.531306057879743 -0.4180135409816561 0 0 0
5280 1760 9 0.41 -40.069006235829356 -4.9373636591482235 -1.022472920839025 1 0 0
6052 2018 8 -0.82 -39.82262255377084 8.879754941158396 -12.34384174177325 1 0 1
5605 1869 8 -0.82 -39.71668773399165 10.07008945879102 -9.29564120461867 1 0 1
163 55 8 -0.82 -41.168448272181365 4.664020953808244 -7.127433205603617 0 0 0
5969 1990 9 0.41 -37.392163144115706 11.29567833354843 -6.415413424661548 1 0 1
5968 1990 8 -0.82 -37.59623571818442 12.311289525910976 -6.553262187656631 1 0 1
6107 2036 9 0.41 -37.026975429931994 8.580385570024188 -7.01774109569407 1 0 1
706 236 8 -0.82 -36.49388089082042 10.716194967631193 -11.375515596327189 0 0 0
6054 2018 9 0.41 -39.60107796617862 8.208299670950371 -13.11545740764074 1 0 1
425 142 9 0.41 -41.46148048670164 -10.937839645941882 -5.409758857395408 0 0 0
553 185 8 -0.82 -41.40656497610254 -5.007483979795653 -9.247320736936446 0 0 0
69 23 9 0.41 -21.833472652525277 -6.667171681400406 -11.55515639574907 0 1 0
1273 425 8 -0.82 -34.34865645844099 8.154852351333485 -11.69430129196507 0 0 1
1274 425 9 0.41 -33.83979050361366 8.645494410379992 -10.951664860347814 0 0 1
300 100 9 0.41 -31.531947512606266 8.23410843697421 -8.051065392600925 0 0 0
643 215 8 -0.82 -27.630806532955454 7.6316971105509595 -7.1996081314951255 0 0 0
645 215 9 0.41 -28.274893408042022 7.336554595856075 -6.427530456477603 0 0 0
298 100 8 -0.82 -30.97935795208156 7.446763883969599 -7.65420833764062 0 0 0
299 100 9 0.41 -31.568703356264905 6.625449738084733 -7.506070514664632 0 0 0
644 215 9 0.41 -28.173381455256376 7.787594902611968 -8.053164867932221 0 0 0
783 261 9 0.41 -25.739353419088005 10.530926000877326 -13.465830426123429 0 0 1
781 261 8 -0.82 -26.531809711049853 10.66038964976632 -12.847966906991537 0 0 1
873 291 9 0.41 -24.722970235858558 4.4976436721626385 -7.410920125344134 0 0 1
660 220 9 0.41 -33.68460728993054 7.3442817712703565 -13.081028594293542 0 0 0
658 220 8 -0.82 -33.082310215568555 6.910883565032535 -13.804162815661238 0 0 0
974 325 9 0.41 -40.298754899733716 11.60399085653324 -13.690680630682428 0 0 1
5078 1693 9 0.41 -32.057249929441234 9.915783437868342 -9.300706742980024 1 0 0
5077 1693 8 -0.82 -32.485411924935875 9.463930078291536 -8.497223281357531 1 0 0
5079 1693 9 0.41 -32.50564407926878 10.262027385134964 -7.828459318629195 1 0 0
549 183 9 0.41 -32.433423492724685 -13.373616988812898 -10.524888900081539 0 1 0
627 209 9 0.41 -32.69936089866493 11.790336742898933 -10.008504599665192 0 0 0
478 160 8 -0.82 -30.32421253151019 11.487674903420231 -6.420603192170422 0 0 0
625 209 8 -0.82 -31.939538176000717 11.230376073276108 -10.40710809099928 0 0 0
479 160 9 0.41 -29.719051458051474 10.763439883698354 -6.871441215004822 0 0 0
480 160 9 0.41 -30.590465348044923 11.292666286143259 -5.4326390587373155 0 0 0
626 209 9 0.41 -31.939362317303026 10.910624248671613 -11.394269022778168 0 0 0
904 302 8 -0.82 -29.71095485614155 13.25056685608173 -10.567541507215383 0 0 0
906 302 9 0.41 -28.724825392379056 12.984801307042265 -10.371763539729677 0 0 0
782 261 9 0.41 -26.720734901877947 11.617074131809595 -12.506619000806234 0 0 1
905 302 9 0.41 -30.29539914559946 12.404997711751292 -10.525723904804675 0 0 0
1925 642 9 0.41 -29.309844213563792 -12.064766467287455 -7.338461714769882 0 1 0
678 226 9 0.41 -27.07068916946961 9.105149992013974 -11.965296216253822 0 0 0
5870 1957 9 0.41 -41.392243980672156 11.916731035001757 -11.781449064663157 1 0 1
580 194 8 -0.82 -24.45087443666952 10.823570871699157 -6.8336572411353025 0 -1 0
581 194 9 0.41 -24.80485399860599 10.470009025085282 -5.955548644669447 0 -1 0
1410 470 9 0.41 -38.97549931190103 -12.189185400590192 -13.283319871830724 0 1 1
2551 851 8 -0.82 -21.650868436226926 8.638433801176589 -11.457056445255203 0 0 1
365 122 9 0.41 -22.609840470447573 8.361201978635947 -10.395092304050808 0 0 0
167 56 9 0.41 -29.646612421474345 -13.583017986069077 -11.849266723711299 0 0 0
1772 591 9 0.41 -25.433120690271185 -13.774880484130298 -7.788932534416243 0 1 0