LAMMPS (2 Aug 2023 - Update 1)
# LAMMPS input script by Simon Gravelle
# This input is part of a tutorial from https://lammpstutorials.github.io
# Last tested using the 2Aug2023 stable LAMMPS version
# This file was released under the GNU general public license v3.0

# ⣿⣿⡆⠀⠀⠀⠀⠀⠀⣾⣿⣿⣆⠀⠀⠀⣿⣿⣿⣆⠀⠀⣰⣿⣿⣷⠀⢸⣿⣿⣷⡀⠀⢀⣾⣿⣿⠀⠀⣿⣿⣿⣿⣿⣷⣆⠀⢀⣶⣿⠿⠿⣿⡆⠀⠀⠀⠀⠀⠀⠀⠀⠀⢀⣀⣠⣤⣶⣿⣿⣿⣦⡄⠀⠀⠀⠀⠀⠀⠀
# ⣿⣿⡇⠀⠀⠀⠀⠀⣼⣿⡏⣿⣿⡄⠀⠀⣿⣿⡿⣿⡆⢰⣿⢿⣿⣿⠀⢸⣿⣿⢿⣧⠀⣾⡿⣿⣿⠀⠀⣿⣿⡇⠀⢈⣿⣿⠀⢸⣿⣧⣄⣀⡀⠀⠀⠀⠀⠀⠀⠀⢀⣤⣾⣿⣿⠏⣿⣿⣿⣿⣿⣿⣿⡄⠀⠀⠀⠀⠀⠀
# ⣿⣿⡇⠀⠀⠀⠀⢰⣿⣿⣀⣸⣿⣷⡀⠀⣿⣿⡇⢻⣿⣿⡏⢸⣿⣿⠀⢸⣿⣿⠘⣿⣿⡿⠁⣿⣿⠀⠀⣿⣿⡿⠿⠿⠿⠋⠀⠀⠉⠛⠻⠿⣿⣷⠀⠀⠀⠀⠀⢠⣿⣿⣿⣿⣿⡄⠻⣿⣿⣿⣿⡿⠟⣃⠀⠀⠀⠀⠀⠀
# ⣿⣿⣧⣤⣤⣤⢠⣿⣿⠛⠛⠛⢻⣿⣧⠀⣿⣿⡇⠀⠛⠛⠀⢸⣿⣿⠀⢸⣿⣿⠀⠘⠛⠃⠀⣿⣿⠀⠀⣿⣿⡇⠀⠀⠀⠀⠀⢰⣶⣤⣤⣤⣿⡿⠀⠀⠀⠀⠀⣻⣿⣿⣿⣿⣿⣿⣄⡀⠉⠉⠁⠀⢠⣿⡄⠀⠀⠀⠀⠀
# ⠉⠉⠉⠉⠉⠉⠈⠉⠁⠀⠀⠀⠀⠉⠉⠀⠉⠉⠁⠀⠀⠀⠀⠈⠉⠉⠀⠈⠉⠉⠀⠀⠀⠀⠀⠉⠉⠀⠀⠉⠉⠁⠀⠀⠀⠀⠀⠀⠉⠉⠉⠉⠉⠀⠀⠀⠀⠀⠀⣿⣿⣿⣿⣿⣿⣿⣿⣿⣷⣶⣶⣾⣿⣿⡇⠀⠀⠀⠀⠀
# ⢀⣤⠀⠀⠀⠀⠀⠀⠀⠀⠀⠀⣤⡀⠀⠀⠀⠀⠀⠀⠀⠀⠀⠀⠀⠀⠀⢰⣶⠀⠀⠀⠀⠀⠀⠀⠀⢰⡆⠀⠀⠀⠀⠀⠀⠀⠀⠀⠀⠀⠀⠀⠀⠀⠀⠀⠀⠀⠀⠘⣿⣿⣿⣿⣿⣿⣿⣿⣿⣿⣿⣿⣿⣿⡃⠀⠀⠀⠀⠀
# ⣼⣿⣴⡦⠀⣴⠀⠀⠀⣴⡄⢤⣿⣧⣶⠄⢀⣤⡶⣶⣄⠀⠀⣴⣤⣴⣦⢠⣦⠀⠀⣤⠶⢶⣤⡀⠀⢸⡇⠀⢠⣴⠶⢦⡄⠀⠀⠀⠀⠀⠀⠀⠀⠀⠀⠀⠀⠀⠀⢀⣼⣿⣿⣿⣿⣿⣿⣿⣿⣿⣿⣿⣿⣿⣿⣶⣄⠀⠀⠀
# ⢸⣿⠀⠀⠀⣿⠀⠀⠀⣿⡇⠀⣿⡆⠀⠀⣿⠇⠀⠀⢻⡇⠀⣿⡇⠀⠀⢸⣿⠀⠀⣠⣤⣤⣽⡇⠀⢸⡇⠀⢻⣧⣄⣀⠀⠀⠀⠀⠀⠀⠀⠀⠀⠀⠀⠀⣀⣀⣀⣾⣿⣿⣿⣿⣿⣿⣿⣿⣿⣿⣿⣿⣿⣿⣿⣿⣿⣧⡀⠀
# ⠸⣿⠀⠀⠀⣿⡄⠀⢀⣿⡇⠀⣿⡇⠀⠀⢿⣇⠀⢀⣼⡇⠀⣿⡇⠀⠀⢸⣿⠀⢸⣏⠀⠀⣼⡇⠀⢸⡇⠀⡀⠀⠉⢹⣷⠀⠀⠀⠀⠀⠀⠀⣀⣴⣾⣿⣿⡟⢸⣿⣿⣿⣿⣿⣿⣿⣿⣿⣿⣿⣿⣿⣿⣿⣿⣿⣿⣿⣷⠀
# ⠀⠙⠛⠛⠀⠈⠛⠛⠋⠛⠁⠀⠈⠛⠛⠃⠈⠛⠛⠛⠋⠀⠀⠛⠃⠀⠀⠘⠛⠀⠈⠛⠛⠛⠙⠃⠀⠘⠃⠀⠙⠛⠛⠛⠁⠀⠀⠀⠀⠀⢠⣾⣿⣿⣿⣿⣿⠀⣼⣿⣿⣿⣿⣿⣿⣿⣿⣿⣿⣿⣿⣿⣿⣿⣿⣿⣿⣿⣿⡇
# ⠀⠀⠀⠀⠀⠀⠀⠀⠀⠀⠀⠀⠀⠀⠀⠀⠀⠀⠀⠀⠀⠀⠀⠀⠀⠀⠀⠀⠀⠀⠀⠀⠀⠀⠀⠀⠀⠀⠀⠀⠀⠀⠀⠀⠀⠀⠀⠀⣠⣴⣿⣿⣿⣿⣿⣿⣿⡀⣿⣿⣿⣿⣿⣿⣿⣿⣿⣿⣿⣿⣿⣿⣿⣿⣿⣿⣿⣿⣿⣿
#⠀ ⠀⠀⠀⠀⠀⠀⠀⠀⠀⠀⠀⠀⠀⠀⠀⠀⠀⠀⠀⠀⠀⠀⠀⠀⠀⠀⠀⠀⠀⠀⠀⠀⠀⠀⠀⠀⠀⠀⠀⠀⠀⠀⠀⠀⠀⠀⢰⣿⣿⣿⣿⣿⣿⣿⣿⣿⡇⢻⣿⣿⣿⣿⣿⣿⣿⣿⣿⣿⣿⣿⣿⣿⣿⣿⣿⣿⣿⣿⡏
# ⠀⠀⠀⠀⠀⠀⠀⠀⠀⠀⠀⠀⠀⠀⠀⠀⠀⠀⠀⠀⠀⠀⠀⠀⠀⠀⠀⠀⠀⠀⠀⠀⠀⠀⠀⠀⠀⠀⠀⠀⠀⠀⠀⠀⠀⠀⠀⠸⣿⣿⣿⣿⣿⣿⣿⣿⣿⣿⡘⣿⣿⣿⣿⣿⡏⣼⣿⣿⣿⣿⣿⣿⣿⣿⣿⣿⣿⣿⣿⠁
# ⠀⠀⠀⠀⠀⠀⠀⠀⠀⠀⠀⠀⠀⠀⠀⠀⠀⠀⠀⠀⠀⠀⠀⠀⠀⠀⠀⠀⠀⠀⠀⠀⠀⠀⠀⠀⠀⠀⠀⠀⠀⠀⠀⠀⠀⠀⠀⠀⠨⣿⣿⣿⣿⣿⣿⣿⣿⣿⣷⡈⠻⣿⣿⣿⣇⠸⣿⣿⣿⣿⣿⣿⡿⢻⣿⣿⠿⠋⠁⠀
# ⠀⠀⠀⠀⠀⠀⠀⠀⠀⠀⠀⠀⠀⠀⠀⠀⠀⠀⠀⠀⠀⠀⠀⠀⠀⠀⠀⠀⠀⠀⠀⠀⠀⠀⠀⠀⠀⠀⠀⠀⠀⠀⠀⠀⠀⠀⠀⠀⠀⢻⣿⣿⣿⣿⣿⣿⣿⣿⣿⣷⡀⠈⠻⢿⣿⣦⣈⠙⠛⠛⠛⣁⣴⡿⠛⠁⠀⠀⠀⠀
# ⠀⠀⠀⠀⠀⠀⠀⠀⠀⠀⠀⠀⠀⠀⠀⠀⠀⠀⠀⠀⠀⠀⠀⠀⠀⠀⠀⠀⠀⠀⠀⠀⠀⠀⠀⠀⠀⠀⠀⠀⠀⠀⠀⠀⠀⠀⠀⠀⠀⠀⠻⣿⣿⣿⣿⣿⣿⣿⣿⣿⣿⣦⡀⠀⠈⠉⠛⠛⠓⠚⠋⠉⠁⠀⠀⠀⠀⠀⠀⠀
# ⠀⠀⠀⠀⠀⠀⠀⠀⠀⠀⠀⠀⠀⠀⠀⠀⠀⠀⠀⠀⠀⠀⠀⠀⠀⠀⠀⠀⠀⠀⠀⠀⠀⠀⠀⠀⠀⠀⠀⠀⠀⠀⠀⠀⠀⠀⠀⠀⠀⠀⠀⠀⠙⠻⠿⣿⣿⣿⣿⡿⠟⠋⠀

units real
atom_style full

read_data silica.data
Reading data file ...
  orthogonal box = (-3.1662119 2.4397298 1.5469185) to (23.75179 18.145848 19.038659)
  2 by 1 by 2 MPI processor grid
  reading atoms ...
  576 atoms
  reading velocities ...
  576 velocities
Finding 1-2 1-3 1-4 neighbors ...
  special bond factors lj:    0        0        0       
  special bond factors coul:  0        0        0       
     0 = max # of 1-2 neighbors
     0 = max # of 1-3 neighbors
     0 = max # of 1-4 neighbors
     1 = max # of special neighbors
  special bonds CPU = 0.001 seconds
  read_data CPU = 0.014 seconds

mass 1 28.0855 # Si
mass 2 15.999 # O

pair_style reaxff NULL safezone 3.0 mincap 150
pair_coeff * * reaxCHOFe.ff Si O
WARNING: Van der Waals parameters for element SI indicate inner wall+shielding, but earlier atoms indicate a different van der Waals method. This may cause division-by-zero errors. Keeping van der Waals setting for earlier atoms. (../reaxff_ffield.cpp:251)
WARNING: Van der Waals parameters for element AL indicate inner wall+shielding, but earlier atoms indicate a different van der Waals method. This may cause division-by-zero errors. Keeping van der Waals setting for earlier atoms. (../reaxff_ffield.cpp:251)
WARNING: Changed valency_val to valency_boc for X (../reaxff_ffield.cpp:296)
fix myqeq all qeq/reaxff 1 0.0 10.0 1.0e-6 reaxff maxiter 400

group grpSi type 1
192 atoms in group grpSi
group grpO type 2
384 atoms in group grpO
variable totqSi equal charge(grpSi)
variable totqO equal charge(grpO)
variable nSi equal count(grpSi)
variable nO equal count(grpO)
variable qSi equal v_totqSi/${nSi}
variable qSi equal v_totqSi/192
variable qO equal v_totqO/${nO}
variable qO equal v_totqO/384

dump dmp all custom 100 dump.lammpstrj id type q xs ys zs
thermo 5
thermo_style custom step temp etotal press vol v_qSi v_qO
fix myspec all reaxff/species 5 1 5 species.log element Si O
WARNING: Resetting reneighboring criteria to 'delay 0 every 5 check no' due to fix reaxff/species averaging of bond data (../fix_reaxff_species.cpp:123)

velocity all create 300.0 3482028
fix mynpt all npt temp 300.0 300.0 100 aniso 1.0 1.0 1000
timestep 0.5

run 5000

CITE-CITE-CITE-CITE-CITE-CITE-CITE-CITE-CITE-CITE-CITE-CITE-CITE

Your simulation uses code contributions which should be cited:

- pair reaxff command: doi:10.1016/j.parco.2011.08.005

@Article{Aktulga12,
 author = {H. M. Aktulga and J. C. Fogarty and S. A. Pandit and A. Y. Grama},
 title = {Parallel Reactive Molecular Dynamics: {N}umerical Methods and Algorithmic Techniques},
 journal = {Parallel Computing},
 year =    2012,
 volume =  38,
 number =  {4--5},
 pages =   {245--259}
}

- fix qeq/reaxff command: doi:10.1016/j.parco.2011.08.005

@Article{Aktulga12,
 author = {H. M. Aktulga and J. C. Fogarty and S. A. Pandit and A. Y. Grama},
 title = {Parallel Reactive Molecular Dynamics: {N}umerical Methods and Algorithmic Techniques},
 journal = {Parallel Computing},
 year =    2012,
 volume =  38,
 pages =   {245--259}
}

CITE-CITE-CITE-CITE-CITE-CITE-CITE-CITE-CITE-CITE-CITE-CITE-CITE

Neighbor list info ...
  update: every = 5 steps, delay = 0 steps, check = no
  max neighbors/atom: 2000, page size: 100000
  master list distance cutoff = 12
  ghost atom cutoff = 12
  binsize = 6, bins = 5 3 3
  2 neighbor lists, perpetual/occasional/extra = 2 0 0
  (1) pair reaxff, perpetual
      attributes: half, newton off, ghost
      pair build: half/bin/newtoff/ghost
      stencil: full/ghost/bin/3d
      bin: standard
  (2) fix qeq/reaxff, perpetual, copy from (1)
      attributes: half, newton off
      pair build: copy
      stencil: none
      bin: none
Per MPI rank memory allocation (min/avg/max) = 152.1 | 153.8 | 155.1 Mbytes
   Step          Temp          TotEng         Press          Volume         v_qSi           v_qO     
         0   300           -82752.034      324297.89      7395.1112      1.8719625     -0.93598127   
         5   933.43131     -82803.808      173683.89      7400.4907      1.871266      -0.93563301   
        10   1297.4181     -82806.913      104090.58      7412.9677      1.8705662     -0.93528309   
        15   1272.3048     -82869.237      68468.338      7430.3425      1.8699763     -0.93498815   
        20   1135.5764     -82918.518      90650.816      7451.4522      1.868541      -0.93427049   
        25   1074.4527     -82959.759      89944.611      7476.3085      1.8661718     -0.9330859    
        30   1030.7735     -83027.037      52062.388      7504.5369      1.8635307     -0.93176534   
        35   944.54871     -83075.419      73307.006      7535.2388      1.8592514     -0.9296257    
        40   929.79182     -83122.01       48926.627      7568.6537      1.8529557     -0.92647785   
        45   970.20712     -83165.522      31527.301      7604.1461      1.8444818     -0.92224089   
        50   978.9125      -83194.507      25565.044      7640.8095      1.8348717     -0.91743584   
        55   969.97225     -83221.044      15676.502      7677.9357      1.8250862     -0.91254308   
        60   948.03049     -83244.383      17620.422      7714.9473      1.815561      -0.90778051   
        65   931.97205     -83269.538      10112.025      7751.6241      1.8059784     -0.9029892    
        70   921.54228     -83290.793     -85.488278      7787.6263      1.7957989     -0.89789947   
        75   880.66717     -83308.137      3300.1251      7822.3752      1.7856502     -0.89282508   
        80   881.74118     -83327.959     -1215.7232      7855.7958      1.7760882     -0.88804412   
        85   856.47109     -83346.839      2528.3335      7887.8138      1.7669875     -0.88349376   
        90   836.30984     -83366.106      49.60401       7918.4378      1.7587462     -0.87937311   
        95   832.72016     -83385.098     -2203.0034      7947.6161      1.7515245     -0.87576227   
       100   863.59553     -83404.123     -7198.3749      7975.3055      1.7455877     -0.87279385   
       105   896.29006     -83420.399     -14212.109      8001.2519      1.7414457     -0.87072283   
       110   907.50954     -83438.171     -15130.305      8025.1717      1.7389282     -0.8694641    
       115   888.18651     -83456.934     -14705.937      8047.0968      1.7376417     -0.86882086   
       120   876.82727     -83476.165     -13686.172      8067.1562      1.7372007     -0.86860033   
       125   877.34818     -83496.368     -13255.018      8085.4675      1.7377795     -0.86888977   
       130   875.22123     -83517.52      -13362.093      8102.1257      1.7391047     -0.86955236   
       135   878.88016     -83539.369     -16795.758      8117.245       1.7410829     -0.87054147   
       140   867.07427     -83560.569     -17190.409      8130.7907      1.743694      -0.87184699   
       145   865.79146     -83583.084     -11662.744      8142.8298      1.7475005     -0.87375023   
       150   884.27356     -83607.901     -9239.7059      8153.6983      1.7526683     -0.87633416   
       155   874.79177     -83632.765     -1965.7327      8163.6691      1.7585323     -0.87926617   
       160   852.89049     -83658.138     -3933.31        8173.0403      1.7650123     -0.88250614   
       165   832.49481     -83683.14      -7662.4998      8181.7653      1.7717125     -0.88585623   
       170   829.70484     -83707.715     -12031.614      8189.7088      1.7781068     -0.88905339   
       175   829.48376     -83731.822     -12620.831      8196.7572      1.784037      -0.89201848   
       180   818.26624     -83755.66      -7123.1634      8202.9584      1.7900595     -0.89502973   
       185   822.11525     -83780.479     -6531.3538      8208.5469      1.7964918     -0.89824589   
       190   809.57157     -83805.389      299.20125      8213.6708      1.8025976     -0.9012988    
       195   812.52761     -83829.736     -1131.0545      8218.6459      1.8075107     -0.90375536   
       200   819.50169     -83854.062     -3715.2027      8223.4147      1.81114       -0.90556999   
       205   807.58301     -83878.239      1488.0921      8227.8768      1.8133737     -0.90668686   
       210   808.61757     -83901.745      1803.4844      8232.2385      1.8141417     -0.90707086   
       215   807.73597     -83925.603     -382.49295      8236.5367      1.8140893     -0.90704463   
       220   799.30509     -83949.405     -1664.8644      8240.7286      1.8133712     -0.9066856    
       225   789.20099     -83972.93      -5372.777       8244.73        1.8122212     -0.9061106    
       230   766.33193     -83996.037      174.4014       8248.3881      1.8105153     -0.90525767   
       235   753.04701     -84017.576      115.5076       8251.9492      1.8087569     -0.90437843   
       240   748.57534     -84038.979     -3340.8246      8255.4756      1.8066253     -0.90331266   
       245   762.29883     -84060.352     -5509.6321      8258.8501      1.8045077     -0.90225385   
       250   755.51351     -84081.9       -11237.304      8261.8978      1.8030772     -0.90153859   
       255   732.22613     -84103.723     -8563.267       8264.3572      1.8020977     -0.90104885   
       260   732.22356     -84123.911     -9588.1685      8266.3318      1.8005475     -0.90027373   
       265   747.62015     -84145.249     -9160.7494      8267.833       1.7986941     -0.89934704   
       270   740.74024     -84166.299     -6222.8675      8268.8692      1.7969336     -0.8984668    
       275   723.26235     -84187.122     -3820.054       8269.5656      1.7952244     -0.89761221   
       280   711.20961     -84207.401     -4120.4263      8270.0633      1.7933416     -0.89667079   
       285   693.25123     -84226.597     -10641.462      8270.3021      1.7916273     -0.89581366   
       290   700.64359     -84246.745     -13029.729      8269.9639      1.7899652     -0.89498262   
       295   697.53482     -84267.176     -17389.953      8268.9159      1.7887227     -0.89436133   
       300   678.34339     -84287.602     -12352.09       8266.9948      1.7882217     -0.89411086   
       305   668.1515      -84307.817     -17981.703      8264.3151      1.7882936     -0.89414678   
       310   663.03154     -84327.93      -18383.381      8260.7836      1.7890116     -0.89450579   
       315   654.50144     -84347.631     -8222.3362      8256.4175      1.7905618     -0.89528092   
       320   648.92044     -84367.597     -11497.51       8251.5774      1.7927295     -0.89636476   
       325   639.456       -84387.806     -11575.442      8246.1743      1.7956243     -0.89781214   
       330   636.50267     -84408.266     -16598.214      8240.0883      1.7988148     -0.8994074    
       335   632.16317     -84427.816     -9394.5968      8233.2834      1.8018372     -0.90091858   
       340   640.76229     -84448.456     -12576.852      8225.9591      1.8049505     -0.90247525   
       345   626.08035     -84467.795     -8262.0399      8218.1134      1.8083153     -0.90415766   
       350   618.12444     -84487.204     -7094.3226      8209.9252      1.8120647     -0.90603233   
       355   613.67733     -84505.473     -2482.3953      8201.4778      1.8157046     -0.90785229   
       360   614.18717     -84524.71      -1122.5256      8192.9408      1.8194509     -0.90972543   
       365   603.83315     -84542.234      987.35599      8184.4822      1.8231039     -0.91155194   
       370   596.98882     -84559.573     -1724.1081      8176.2108      1.826567      -0.91328349   
       375   586.61041     -84576.44       2155.8951      8168.0321      1.8289284     -0.91446419   
       380   598.64048     -84592.769      508.05258      8160.0462      1.830147      -0.91507351   
       385   614.14852     -84609.468     -4749.5986      8152.1766      1.8306862     -0.91534308   
       390   605.73947     -84626.72      -5036.1979      8144.1775      1.8308503     -0.91542515   
       395   593.17017     -84643.882     -7556.4021      8135.9844      1.8309037     -0.91545185   
       400   586.62196     -84660.71      -4944.0759      8127.5516      1.830627      -0.91531348   
       405   589.20101     -84678.104     -675.05553      8118.9583      1.8300949     -0.91504743   
       410   587.8722      -84693.045     -176.41023      8110.4804      1.8297265     -0.91486323   
       415   580.96662     -84709.114     -4968.9636      8102.1902      1.8300572     -0.9150286    
       420   553.17059     -84725.06       2698.757       8093.8875      1.8309606     -0.91548031   
       425   559.13123     -84740.543     -1667.2549      8085.732       1.8319626     -0.91598132   
       430   562.64951     -84756.65       2376.2157      8077.5761      1.8323689     -0.91618447   
       435   584.06569     -84771.648      4462.9673      8069.625       1.8325333     -0.91626666   
       440   590.41557     -84787.521     -3360.1182      8062.0077      1.8330734     -0.91653672   
       445   581.07603     -84803.916      340.66405      8054.462       1.8339925     -0.91699625   
       450   569.44288     -84819.852     -2803.8717      8047.014       1.8355159     -0.91775793   
       455   544.09079     -84835.522     -3193.7319      8039.5339      1.8372385     -0.91861924   
       460   537.73835     -84849.985     -8297.1954      8031.9902      1.8387121     -0.91935603   
       465   538.7466      -84864.454     -3905.4416      8024.2067      1.8396003     -0.91980015   
       470   560.59848     -84880.569     -7511.2263      8016.2517      1.8406316     -0.92031578   
       475   548.89256     -84895.834     -3085.9314      8008.0976      1.8420654     -0.92103271   
       480   521.25412     -84909.883      8890.9797      7999.9383      1.843846      -0.92192298   
       485   518.60911     -84922.692      969.8419       7992.2232      1.8456656     -0.92283279   
       490   522.16767     -84935.525      3291.6923      7984.8148      1.8467325     -0.92336627   
       495   525.99734     -84948.446      10967.4        7977.7708      1.8470251     -0.92351257   
       500   526.23297     -84961.405      7699.6703      7971.2611      1.847107      -0.92355352   
       505   518.44616     -84974.405      2569.1929      7965.2099      1.8474608     -0.92373041   
       510   494.45226     -84986.658      6788.2863      7959.4222      1.8479412     -0.92397062   
       515   488.70701     -84999.287      3123.323       7953.9169      1.8480502     -0.92402511   
       520   493.83766     -85011.346      641.03496      7948.635       1.8473944     -0.92369721   
       525   498.76466     -85023.485      2273.917       7943.4939      1.8466644     -0.92333222   
       530   497.73625     -85035.11       10611.399      7938.6176      1.8461466     -0.9230733    
       535   495.93685     -85047.347      785.06596      7934.2494      1.8461308     -0.92306538   
       540   495.29307     -85059.192     -7105.0381      7930.0615      1.8467987     -0.92339937   
       545   480.07252     -85071.873      2282.5047      7925.7613      1.8476394     -0.92381971   
       550   467.12293     -85083.329     -964.24911      7921.5573      1.8486767     -0.92433833   
       555   460.56378     -85094.582      3971.5693      7917.371       1.8501174     -0.92505869   
       560   463.98211     -85106.669      1770.4159      7913.2816      1.8516755     -0.92583777   
       565   464.03066     -85118.428      6208.7313      7909.3404      1.8533043     -0.92665214   
       570   462.83252     -85129.127      9507.8527      7905.8131      1.8553851     -0.92769255   
       575   469.53876     -85140.806     -328.32842      7902.7558      1.8574849     -0.92874243   
       580   467.71186     -85151.804      2799.4039      7899.7891      1.8592161     -0.92960803   
       585   477.72378     -85164.104      1152.4456      7896.9806      1.860493      -0.93024648   
       590   472.77459     -85174.273      6285.0761      7894.3705      1.8611715     -0.93058576   
       595   469.04472     -85185.536      8809.7508      7892.039       1.8611988     -0.9305994    
       600   449.38554     -85196.115      17899.858      7890.1386      1.8611637     -0.93058187   
       605   444.46307     -85206.619     -688.4692       7888.8234      1.8613015     -0.93065077   
       610   426.71471     -85216.328      4302.9911      7887.6024      1.8606603     -0.93033016   
       615   429.35122     -85225.525      2727.0481      7886.5833      1.8590603     -0.92953014   
       620   440.39654     -85235.133     -3578.3911      7885.6415      1.8567441     -0.92837204   
       625   442.96637     -85245.332     -3135.8688      7884.5752      1.8544842     -0.92724208   
       630   438.08825     -85254.793     -2401.9354      7883.4198      1.8527126     -0.9263563    
       635   421.8267      -85263.467      4998.495       7882.1856      1.8509384     -0.92546918   
       640   426.09118     -85273.37      -127.35738      7881.0509      1.849327      -0.92466348   
       645   431.23831     -85282.553     -3114.3537      7879.9069      1.8479366     -0.92396832   
       650   426.3805      -85291.931     -4304.6048      7878.6337      1.8472183     -0.92360916   
       655   417.85432     -85301.191      737.51444      7877.1703      1.8473677     -0.92368385   
       660   409.54959     -85310.516      4853.5847      7875.6475      1.8482371     -0.92411857   
       665   402.13672     -85320.003     -117.36332      7874.2623      1.8499667     -0.92498336   
       670   403.11363     -85329.115     -4048.5431      7872.8903      1.8521325     -0.92606626   
       675   411.19375     -85338.662      1858.3191      7871.3789      1.8546603     -0.92733017   
       680   422.62189     -85348.64      -1524.8833      7869.9127      1.8576569     -0.92882845   
       685   421.53762     -85359.054      820.08139      7868.4732      1.8612806     -0.93064031   
       690   420.11799     -85368.013      546.60602      7867.1357      1.8652202     -0.93261012   
       695   410.259       -85377.989      3660.809       7865.8967      1.8689854     -0.93449268   
       700   397.29633     -85387.204      9704.1733      7864.8567      1.8722067     -0.93610333   
       705   388.6939      -85395.525      7515.5921      7864.2365      1.8749213     -0.93746064   
       710   386.59428     -85403.887      1930.0036      7863.9868      1.8767756     -0.93838782   
       715   397.01766     -85412.293     -1415.5289      7863.8613      1.8773634     -0.93868168   
       720   398.02066     -85420.094      986.01202      7863.7337      1.8769996     -0.93849978   
       725   400.35967     -85427.577      4006.4126      7863.6875      1.8760105     -0.93800527   
       730   401.93333     -85435.438      4096.0942      7863.8265      1.874656      -0.93732799   
       735   400.13428     -85443.342      4705.1181      7864.1928      1.872825      -0.93641248   
       740   395.27498     -85450.447      6397.1825      7864.8041      1.8702999     -0.93514996   
       745   408.78579     -85458.396      8519.0113      7865.7309      1.8669686     -0.93348428   
       750   406.82599     -85465.263      6195.9716      7867.0943      1.863501      -0.93175051   
       755   400.64346     -85473.152     -2615.4753      7868.7643      1.8598477     -0.92992385   
       760   383.95114     -85479.14      -6570.1945      7870.3145      1.8561676     -0.92808381   
       765   382.98905     -85486.19      -1249.4703      7871.4955      1.8530048     -0.92650242   
       770   372.96367     -85493.048      3875.9042      7872.601       1.8503445     -0.92517227   
       775   377.07319     -85499.827     -2548.3563      7873.8128      1.848498      -0.924249     
       780   384.51384     -85507.243     -3129.1818      7874.8948      1.8475341     -0.92376706   
       785   386.32893     -85514.986     -5091.1401      7875.811       1.8474128     -0.92370639   
       790   384.06699     -85522.291     -3402.4678      7876.4708      1.8481299     -0.92406497   
       795   384.72606     -85530.004     -3723.243       7876.9312      1.8493653     -0.92468264   
       800   386.70833     -85537.525     -4622.092       7877.2494      1.8511143     -0.92555716   
       805   383.82033     -85545.383     -4698.6408      7877.3827      1.85328       -0.92664      
       810   373.36888     -85553.427     -8223.6389      7877.3163      1.856007      -0.9280035    
       815   362.20744     -85560.966     -6776.813       7876.8997      1.8591166     -0.92955831   
       820   359.57381     -85568.662     -6414.6867      7876.159       1.8623419     -0.93117095   
       825   354.58019     -85575.961     -3482.2536      7875.1859      1.8657173     -0.93285865   
       830   361.2237      -85583.608      681.44959      7874.0304      1.8690985     -0.93454925   
       835   360.97767     -85591.23      -3003.1434      7872.8474      1.8725889     -0.93629443   
       840   354.69969     -85598.713     -4032.7919      7871.5374      1.8760835     -0.93804175   
       845   340.13139     -85605.777      8411.5584      7870.12        1.8789648     -0.93948241   
       850   338.60765     -85612.577      8418.4112      7869.0573      1.8809892     -0.94049461   
       855   328.42211     -85618.106      7906.5408      7868.4572      1.8821058     -0.9410529    
       860   328.18062     -85623.799      1671.1527      7868.2193      1.8823327     -0.94116634   
       865   331.94206     -85629.448      133.99116      7868.1107      1.881494      -0.94074699   
       870   329.20747     -85634.473      7406.8493      7868.0792      1.8798067     -0.93990333   
       875   336.50816     -85639.309      5018.0397      7868.391       1.8775728     -0.93878638   
       880   337.97513     -85644.067     -2102.8698      7868.9692      1.8750055     -0.93750276   
       885   343.22647     -85648.886     -6277.1656      7869.4406      1.8720441     -0.93602207   
       890   346.75322     -85653.853     -4296.292       7869.6438      1.8691066     -0.9345533    
       895   342.74239     -85658.319     -4441.0685      7869.5975      1.866373      -0.93318652   
       900   341.27353     -85663.211     -7471.4263      7869.2825      1.8636625     -0.93183123   
       905   332.78109     -85667.997     -5463.0654      7868.6425      1.8609862     -0.9304931    
       910   325.53955     -85672.438     -6939.1112      7867.7236      1.8586162     -0.92930811   
       915   322.81897     -85677.267     -3333.7636      7866.4808      1.8564355     -0.92821777   
       920   326.44712     -85682.196     -1947.1816      7865.0779      1.8548241     -0.92741203   
       925   319.41901     -85686.736     -4294.2814      7863.6198      1.8539518     -0.92697589   
       930   321.11722     -85692.406     -6274.9749      7861.9807      1.8537455     -0.92687276   
       935   314.84252     -85696.813     -9784.007       7860.0681      1.8541336     -0.92706679   
       940   315.20246     -85702.358     -8367.0192      7857.7209      1.8550796     -0.9275398    
       945   313.76489     -85707.745     -49.241722      7855.0613      1.8565517     -0.92827587   
       950   316.51001     -85712.864     -4647.3894      7852.4091      1.8584235     -0.92921173   
       955   314.73249     -85717.86      -3767.181       7849.6345      1.8607794     -0.93038968   
       960   317.63924     -85723.131     -2718.342       7846.705       1.8633194     -0.93165969   
       965   311.74393     -85727.999      790.93435      7843.7034      1.8660394     -0.93301969   
       970   308.2995      -85733.027      358.5622       7840.7709      1.8689718     -0.93448588   
       975   310.60582     -85737.9        890.33601      7837.8668      1.8714853     -0.93574265   
       980   314.57596     -85742.99       4651.209       7835.0541      1.8737404     -0.93687022   
       985   316.3416      -85747.644      634.34924      7832.4786      1.8761172     -0.9380586    
       990   314.88781     -85751.955     -3107.1656      7829.9396      1.8781245     -0.93906225   
       995   319.83294     -85756.905     -202.13735      7827.2849      1.8798212     -0.93991059   
      1000   314.19241     -85761.374      11794.851      7824.7095      1.8812641     -0.94063203   
      1005   316.33853     -85765.593     -816.98407      7822.5728      1.8823481     -0.94117406   
      1010   313.90253     -85769.781      541.26744      7820.4948      1.8827002     -0.94135011   
      1015   312.02791     -85773.634     -187.60236      7818.4314      1.8822466     -0.94112331   
      1020   310.48475     -85777.289     -3283.1163      7816.3465      1.8812701     -0.94063504   
      1025   304.65453     -85780.836      770.29561      7814.1763      1.8797784     -0.93988922   
      1030   304.71814     -85784.637     -2300.1989      7812.0373      1.8781727     -0.93908633   
      1035   290.55535     -85787.614      894.25082      7809.8755      1.8765717     -0.93828583   
      1040   282.90861     -85790.48      -598.74318      7807.7373      1.8748727     -0.93743633   
      1045   279.29939     -85793.593      5957.844       7805.6077      1.873289      -0.9366445    
      1050   287.3859      -85796.545      40.02232       7803.7039      1.8721096     -0.93605479   
      1055   293.84309     -85799.644      1340.4369      7801.9235      1.8714302     -0.93571512   
      1060   300.10955     -85802.899     -1675.2455      7800.2101      1.8712329     -0.93561645   
      1065   288.69494     -85805.769      2375.9321      7798.4508      1.8716854     -0.93584269   
      1070   286.38548     -85809.34       1490.6574      7796.7726      1.8724569     -0.93622843   
      1075   285.10207     -85812.218      7703.7913      7795.2447      1.873411      -0.9367055    
      1080   289.79469     -85815.898      6295.2366      7794.0208      1.8740966     -0.93704829   
      1085   293.82776     -85818.357      2612.8827      7793.0432      1.8742675     -0.93713376   
      1090   294.77687     -85821.472      5059.5641      7792.1624      1.8744132     -0.9372066    
      1095   291.48612     -85824.155      1991.7652      7791.5065      1.8746007     -0.93730034   
      1100   286.75359     -85826.806     -1294.1708      7790.9796      1.8742172     -0.93710861   
      1105   289.93581     -85829.337     -6770.1015      7790.376       1.8732287     -0.93661437   
      1110   290.10732     -85831.822      2168.4882      7789.5451      1.8721016     -0.93605078   
      1115   298.43054     -85834.451     -4046.7309      7788.694       1.8713182     -0.93565912   
      1120   288.20302     -85837.038      2567.5452      7787.7522      1.8707639     -0.93538193   
      1125   284.67317     -85839.899     -349.1599       7786.8956      1.8704249     -0.93521245   
      1130   282.85503     -85842.5       -3599.6786      7786.0575      1.8704477     -0.93522383   
      1135   287.23499     -85844.867     -5417.5169      7785.0745      1.8705708     -0.93528542   
      1140   283.65223     -85847.545      4603.6106      7783.9358      1.870766      -0.93538302   
      1145   279.65239     -85850.25       2495.7619      7782.9785      1.8713299     -0.93566496   
      1150   272.91668     -85852.181      3408.9401      7782.2011      1.8720616     -0.93603082   
      1155   274.85458     -85853.716      5283.1187      7781.5134      1.8727355     -0.93636776   
      1160   283.68775     -85857.254      2737.4409      7780.9424      1.8732481     -0.93662407   
      1165   276.78107     -85859.315      3625.0738      7780.5423      1.8739123     -0.93695617   
      1170   273.67684     -85861.552     -1790.3438      7780.2771      1.874561      -0.93728049   
      1175   271.27306     -85863.904      405.8261       7779.981       1.8750174     -0.93750869   
      1180   270.64459     -85865.833      3091.6938      7779.7575      1.8753311     -0.93766553   
      1185   272.61032     -85867.323      5386.9316      7779.7233      1.8757491     -0.93787454   
      1190   270.80224     -85869.601      2171.7965      7779.8827      1.876415      -0.9382075    
      1195   267.61375     -85871.57       3164.2116      7780.1994      1.8771508     -0.93857538   
      1200   265.15119     -85873.063      5938.6158      7780.6901      1.8775978     -0.93879888   
      1205   266.30709     -85874.586     -884.40327      7781.4017      1.877953      -0.93897651   
      1210   263.90966     -85875.957      4059.6664      7782.1357      1.8781886     -0.93909432   
      1215   267.85774     -85877.364      2739.0331      7782.9888      1.8782748     -0.9391374    
      1220   272.47271     -85878.569     -1013.6007      7783.9708      1.8778032     -0.93890161   
      1225   272.68795     -85879.615     -1541.1005      7784.9494      1.8768231     -0.93841155   
      1230   271.90577     -85880.66       683.89172      7785.9048      1.8757522     -0.93787609   
      1235   269.03876     -85881.215     -3806.9103      7786.8765      1.8745417     -0.93727086   
      1240   265.45481     -85881.941     -5197.9084      7787.6985      1.8728641     -0.93643204   
      1245   264.21142     -85882.444      5801.4791      7788.3096      1.8710745     -0.93553726   
      1250   268.6223      -85883.216     -3262.9276      7789.0593      1.8695995     -0.93479976   
      1255   260.29817     -85883.608      65.598342      7789.7644      1.868289      -0.9341445    
      1260   260.68908     -85884.033     -7954.2601      7790.3739      1.8669509     -0.93347546   
      1265   259.95496     -85884.182     -1331.5636      7790.7083      1.8656559     -0.93282794   
      1270   269.10949     -85884.47      -2707.3327      7790.9353      1.8643844     -0.93219221   
      1275   276.79719     -85884.954     -4836.0949      7791.0344      1.8631442     -0.93157212   
      1280   282.6391      -85885.499     -5115.4076      7790.9352      1.86231       -0.93115501   
      1285   282.54989     -85885.891     -4783.1227      7790.6352      1.8620449     -0.93102246   
      1290   269.90836     -85886.07       6432.7464      7790.1895      1.8622598     -0.93112989   
      1295   265.99574     -85886.674     -986.48668      7789.9271      1.86244       -0.93121998   
      1300   268.86031     -85887.011     -2698.8429      7789.6872      1.8625528     -0.93127641   
      1305   274.08884     -85887.172     -3578.7647      7789.3088      1.8627849     -0.93139247   
      1310   281.47273     -85887.909     -3779.0322      7788.7465      1.8632537     -0.93162683   
      1315   287.46215     -85888.677      1617.6637      7788.0592      1.8643327     -0.93216635   
      1320   279.45731     -85888.79       2018.4663      7787.4296      1.8658737     -0.93293683   
      1325   276.61068     -85889.726     -3610.665       7786.8705      1.8676734     -0.93383668   
      1330   273.20387     -85890.067     -3909.9902      7786.1549      1.8693174     -0.93465868   
      1335   282.08338     -85890.84      -289.15074      7785.2495      1.870864      -0.93543198   
      1340   283.11845     -85890.945      5308.747       7784.3534      1.872263      -0.93613148   
      1345   281.23658     -85891.136      2647.2762      7783.6372      1.8735494     -0.93677469   
      1350   272.14741     -85891.824      1288.0903      7783.0416      1.8750398     -0.93751991   
      1355   268.63358     -85892.055      2109.434       7782.5053      1.8763655     -0.93818274   
      1360   267.36834     -85891.958      485.90395      7782.0832      1.8774064     -0.93870322   
      1365   272.35849     -85892.034      3285.7924      7781.7311      1.8783521     -0.93917603   
      1370   277.73855     -85892.056      5121.1096      7781.532       1.8792598     -0.93962991   
      1375   277.21622     -85892.027      5615.2219      7781.6044      1.8801779     -0.94008894   
      1380   275.40625     -85891.981      576.77635      7781.921       1.8812775     -0.94063874   
      1385   268.39902     -85891.398      2368.3157      7782.3238      1.881953      -0.94097649   
      1390   267.97609     -85890.835      6067.1543      7782.8312      1.8819552     -0.94097758   
      1395   270.3921      -85890.495      5103.7965      7783.5931      1.8815418     -0.94077088   
      1400   270.73819     -85889.973      1243.3433      7784.6198      1.8808489     -0.94042447   
      1405   270.22604     -85888.744     -850.62437      7785.7274      1.8797369     -0.93986843   
      1410   268.59892     -85887.79       3674.213       7786.821       1.8784082     -0.93920408   
      1415   263.44081     -85886.575      9507.6422      7788.0608      1.8770759     -0.93853794   
      1420   261.5583      -85885.998      3374.7462      7789.6096      1.8758401     -0.93792004   
      1425   261.45178     -85884.937      4128.1253      7791.3066      1.8748523     -0.93742617   
      1430   262.34126     -85883.72       436.24971      7793.1097      1.8741591     -0.93707957   
      1435   265.86894     -85882.43      -566.0281       7794.8799      1.873532      -0.93676599   
      1440   268.30138     -85881.128      6034.6183      7796.6201      1.8730913     -0.93654566   
      1445   271.44806     -85880.349      266.41919      7798.5186      1.8728109     -0.93640546   
      1450   272.17791     -85879.414      1699.5589      7800.4749      1.8725252     -0.93626258   
      1455   271.28553     -85877.61      -882.43829      7802.4589      1.8718813     -0.93594063   
      1460   279.42554     -85876.262     -2605.1522      7804.3588      1.8711642     -0.93558208   
      1465   277.63853     -85874.315      2180.3718      7806.1774      1.8706591     -0.93532957   
      1470   275.62349     -85872.617     -1588.9146      7807.9952      1.8700236     -0.93501179   
      1475   272.95667     -85871.142      64.428841      7809.714       1.8692089     -0.93460443   
      1480   273.18096     -85869.485     -75.709226      7811.3969      1.8684774     -0.93423869   
      1485   276.2589      -85867.888      3286.743       7813.0952      1.8678497     -0.93392483   
      1490   279.36917     -85866.211     -1605.6366      7814.87        1.8675797     -0.93378984   
      1495   276.05227     -85864.601     -1919.9773      7816.579       1.8676167     -0.93380833   
      1500   269.16987     -85862.721     -2036.7713      7818.2248      1.8678835     -0.93394175   
      1505   273.78447     -85861.201     -305.58471      7819.7571      1.8681169     -0.93405847   
      1510   266.00453     -85859.328      2258.3516      7821.2727      1.8682753     -0.93413767   
      1515   271.64641     -85857.538     -3929.265       7822.853       1.868603      -0.93430152   
      1520   277.6449      -85855.589     -594.06584      7824.2702      1.8691147     -0.93455737   
      1525   281.87976     -85853.894     -2017.9749      7825.5864      1.8696636     -0.93483179   
      1530   283.98028     -85852.233     -2869.4283      7826.7667      1.870243      -0.93512152   
      1535   282.37724     -85850.975     -310.61604      7827.849       1.8712156     -0.93560778   
      1540   276.35718     -85848.698     -4142.4052      7828.9554      1.8726159     -0.93630796   
      1545   281.58468     -85847.001     -2318.0917      7829.9179      1.873988      -0.936994     
      1550   286.9671      -85845.145      5018.014       7830.7973      1.8750809     -0.93754044   
      1555   292.92045     -85843.127      3325.0807      7831.8735      1.8759493     -0.93797463   
      1560   295.42847     -85841.113      1089.0484      7833.1182      1.8768404     -0.93842019   
      1565   291.44004     -85839.346     -1750.2082      7834.4235      1.8776543     -0.93882716   
      1570   287.22132     -85836.756     -1245.2767      7835.6684      1.8781222     -0.93906108   
      1575   293.11517     -85834.666     -2252.5508      7836.8095      1.8781831     -0.93909154   
      1580   293.27878     -85832.376      4550.8229      7837.8648      1.878044      -0.93902198   
      1585   296.31747     -85830.182      7279.2201      7839.1015      1.8780476     -0.9390238    
      1590   293.14612     -85827.932     -158.54175      7840.616       1.8783738     -0.9391869    
      1595   286.68976     -85825.762      604.07478      7842.1596      1.8786031     -0.93930157   
      1600   285.9502      -85823.981      1616.8894      7843.7221      1.8785845     -0.93929223   
      1605   290.70103     -85821.54      -1688.5661      7845.337       1.8781549     -0.93907745   
      1610   294.93297     -85818.948     -593.80578      7846.9066      1.877533      -0.93876648   
      1615   297.32072     -85816.222     -526.39902      7848.4299      1.8764531     -0.93822655   
      1620   289.66122     -85813.71       6625.5779      7849.9591      1.8750156     -0.93750779   
      1625   288.35572     -85811.185     -62.919866      7851.725       1.8731931     -0.93659655   
      1630   286.06119     -85808.108     -2470.4799      7853.519       1.8709077     -0.93545386   
      1635   284.90632     -85805.209     -2853.879       7855.1773      1.8684538     -0.93422691   
      1640   284.57328     -85802.412     -3978.6115      7856.643       1.8659834     -0.93299171   
      1645   280.89547     -85799.708     -3233.6662      7857.9157      1.8639931     -0.93199655   
      1650   274.16362     -85796.91       1296.9939      7859.0651      1.862536      -0.931268     
      1655   278.70154     -85794.289     -5728.6586      7860.189       1.861255      -0.9306275    
      1660   286.32971     -85791.757     -6981.8583      7861.0704      1.8603902     -0.9301951    
      1665   295.33928     -85789.219     -7316.9061      7861.6413      1.860341      -0.93017051   
      1670   298.74705     -85786.818     -3139.952       7861.9464      1.8612064     -0.93060318   
      1675   303.11595     -85784.854     -3708.1085      7862.1003      1.8627123     -0.93135614   
      1680   301.17854     -85782.629     -194.67282      7862.1264      1.8644423     -0.93222116   
      1685   306.29221     -85780.657     -3575.2647      7862.1385      1.8665229     -0.93326147   
      1690   306.65901     -85778.621     -4183.1793      7862.05        1.8687041     -0.93435207   
      1695   301.55878     -85776.545     -2321.4747      7861.7866      1.8708697     -0.93543483   
      1700   292.45026     -85774.74       2125.373       7861.411       1.872612      -0.93630598   
      1705   292.12158     -85772.972     -4944.4301      7861.0355      1.8741206     -0.9370603    
      1710   293.81917     -85771.091     -2551.3128      7860.4673      1.875395      -0.93769751   
      1715   296.9289      -85768.821      2471.8413      7859.7867      1.8764461     -0.93822305   
      1720   298.09163     -85766.88      -135.06216      7859.1802      1.8771966     -0.9385983    
      1725   300.35111     -85764.644     -594.57668      7858.5927      1.8777391     -0.93886956   
      1730   309.18455     -85762.589     -1199.2909      7857.9343      1.8778708     -0.93893542   
      1735   310.69796     -85759.633     -3015.3825      7857.2413      1.877497      -0.9387485    
      1740   313.44406     -85757.622      168.73462      7856.4714      1.8768579     -0.93842893   
      1745   316.89334     -85754.942     -1846.385       7855.7058      1.8760141     -0.93800707   
      1750   310.8135      -85751.815     -639.04132      7854.9234      1.8750151     -0.93750757   
      1755   305.35216     -85749.36       3192.5816      7854.1418      1.8740781     -0.93703905   
      1760   306.26836     -85746.944      5602.5002      7853.4977      1.8733488     -0.93667438   
      1765   309.10942     -85744.743      2991.1548      7853.0923      1.8724687     -0.93623436   
      1770   307.02433     -85741.991     -3269.9221      7852.8175      1.8715389     -0.93576944   
      1775   307.99772     -85740.018     -5883.4762      7852.38        1.8706442     -0.93532212   
      1780   304.90215     -85737.867     -1835.9353      7851.6745      1.8695743     -0.93478714   
      1785   307.01556     -85735.256      2221.6787      7850.9272      1.8683643     -0.93418216   
      1790   312.36186     -85733.057      2643.6815      7850.324       1.8671596     -0.93357979   
      1795   319.35454     -85730.153     -2927.1393      7849.8303      1.8662575     -0.93312875   
      1800   323.79784     -85727.915     -4702.173       7849.2262      1.865653      -0.93282651   
      1805   317.90793     -85725.922     -2530.8108      7848.4134      1.8655736     -0.93278681   
      1810   307.55046     -85724.151     -1132.985       7847.4418      1.8658244     -0.93291218   
      1815   305.86272     -85722.487      90.342872      7846.4136      1.866046      -0.93302298   
      1820   313.1492      -85720.647     -2054.1515      7845.3524      1.8662852     -0.9331426    
      1825   321.68677     -85719.143     -2461.4017      7844.2515      1.8665355     -0.93326775   
      1830   312.18232     -85717.135      941.23406      7843.1196      1.8669751     -0.93348757   
      1835   304.36602     -85715.928     -921.03115      7841.9814      1.8678349     -0.93391746   
      1840   301.30994     -85714.397     -1311.964       7840.8381      1.8689159     -0.93445796   
      1845   303.16646     -85712.897      1027.99        7839.6396      1.8699803     -0.93499016   
      1850   314.93082     -85711.756      646.68561      7838.4983      1.8708397     -0.93541984   
      1855   319.8328      -85710.198      2446.2198      7837.489       1.8717796     -0.93588981   
      1860   320.3444      -85708.51      -838.60981      7836.6134      1.8725913     -0.93629564   
      1865   319.17394     -85706.829     -597.53171      7835.7749      1.8727647     -0.93638234   
      1870   328.27253     -85705.184     -341.4145       7834.9527      1.8726333     -0.93631667   
      1875   335.33277     -85703.378     -297.38638      7834.1119      1.8719469     -0.93597344   
      1880   342.76324     -85701.748      4064.4954      7833.2778      1.8706615     -0.93533076   
      1885   339.45873     -85699.717      8155.1892      7832.6429      1.869399      -0.9346995    
      1890   333.4185      -85698.246      382.32326      7832.3421      1.8682969     -0.93414846   
      1895   330.41983     -85696.971     -3618.8615      7832.088       1.8670362     -0.93351809   
      1900   328.37802     -85695.298     -6131.3943      7831.6991      1.8656266     -0.9328133    
      1905   318.29589     -85693.882     -1196.8974      7831.0966      1.8643219     -0.93216095   
      1910   311.34958     -85692.539      5831.5736      7830.4201      1.8634546     -0.93172732   
      1915   312.13831     -85691.372      687.0246       7829.9129      1.8627725     -0.93138625   
      1920   313.5591      -85690.524     -3405.7361      7829.4299      1.8621976     -0.93109878   
      1925   319.65953     -85689.533     -1857.3319      7828.8531      1.8617311     -0.93086556   
      1930   330.28821     -85688.815      4705.1353      7828.2711      1.8616481     -0.93082407   
      1935   334.36748     -85687.933     -7760.4175      7827.7693      1.8624331     -0.93121653   
      1940   331.00845     -85687.86      -1951.3728      7826.9862      1.8636324     -0.93181618   
      1945   329.48178     -85687.67      -1198.3226      7826.0625      1.8650633     -0.93253166   
      1950   330.7935      -85687.405     -3571.9697      7825.1109      1.8664713     -0.93323563   
      1955   327.60366     -85687.029      4311.7425      7824.125       1.8678667     -0.93393337   
      1960   329.19432     -85686.736      324.03521      7823.2505      1.8692813     -0.93464063   
      1965   332.49064     -85687.064     -4356.6415      7822.3526      1.8707453     -0.93537263   
      1970   328.61046     -85687.401     -1443.1304      7821.2818      1.8721557     -0.93607784   
      1975   326.11701     -85687.63       1396.0341      7820.2003      1.8735954     -0.93679769   
      1980   318.41107     -85687.464      2470.9521      7819.2542      1.8752886     -0.93764429   
      1985   313.48373     -85687.496      4901.9946      7818.4181      1.8767332     -0.93836659   
      1990   317.2852      -85687.621      3025.3143      7817.8179      1.877628      -0.93881399   
      1995   325.38085     -85687.592     -4084.5834      7817.3491      1.8781819     -0.93909097   
      2000   328.26383     -85688.113      1671.9861      7816.7576      1.8784332     -0.93921659   
      2005   331.32027     -85688.102     -1938.4629      7816.2063      1.8786517     -0.93932587   
      2010   325.23755     -85688.02       4236.7755      7815.607       1.8785149     -0.93925745   
      2015   324.67001     -85687.894      1554.2986      7815.1492      1.877911      -0.93895552   
      2020   332.11901     -85688.333     -1729.2915      7814.8044      1.8766736     -0.93833678   
      2025   332.20683     -85688.212      724.10881      7814.4625      1.8749598     -0.93747992   
      2030   331.02921     -85688.384     -1692.5207      7814.1939      1.8729283     -0.93646416   
      2035   329.05409     -85687.967     -795.37268      7813.9334      1.8708615     -0.93543074   
      2040   325.96348     -85688.088      2242.2136      7813.6425      1.8690204     -0.93451019   
      2045   324.13773     -85688.113     -552.45135      7813.4654      1.8672962     -0.93364808   
      2050   323.34204     -85688.508     -7381.6837      7813.2713      1.8656197     -0.93280983   
      2055   327.03734     -85688.559     -4337.794       7812.8258      1.8637455     -0.93187275   
      2060   327.16146     -85688.44      -2869.3597      7812.2325      1.8619682     -0.9309841    
      2065   334.60742     -85689.253     -3392.3743      7811.4622      1.860465      -0.93023252   
      2070   332.00877     -85689.978      1974.0303      7810.5682      1.859705      -0.92985248   
      2075   331.87242     -85690.877     -7988.9964      7809.6503      1.8596886     -0.92984432   
      2080   327.55239     -85692.196     -6230.0564      7808.3633      1.8600707     -0.93003537   
      2085   327.58065     -85693.573     -2527.4324      7806.7692      1.8603764     -0.9301882    
      2090   328.50944     -85694.948     -229.73652      7805.0405      1.8609601     -0.93048004   
      2095   329.53578     -85696.834      950.25908      7803.308       1.8621082     -0.9310541    
      2100   324.99733     -85698.28      -2681.0338      7801.6044      1.8639745     -0.93198727   
      2105   324.14035     -85700.634      2261.673       7799.8234      1.8658609     -0.93293047   
      2110   321.27199     -85702.324      815.61812      7798.1693      1.8676167     -0.93380834   
      2115   317.03798     -85704.047      296.95166      7796.6183      1.869185      -0.93459248   
      2120   317.36347     -85705.723     -4132.7494      7795.1109      1.8706572     -0.93532862   
      2125   314.66476     -85707.634     -3917.561       7793.4732      1.8718495     -0.93592476   
      2130   313.68803     -85709.72       8225.5558      7791.6816      1.8727351     -0.93636755   
      2135   311.65239     -85711.214      9039.1793      7790.1932      1.8736283     -0.93681416   
      2140   307.14272     -85713.122      6451.0592      7789.1257      1.8744026     -0.93720129   
      2145   310.84191     -85714.647      2007.7249      7788.3696      1.8748022     -0.93740111   
      2150   314.55899     -85716.966      1572.2768      7787.756       1.8752935     -0.93764677   
      2155   313.6279      -85718.608      2869.0808      7787.2827      1.8760972     -0.93804862   
      2160   304.79523     -85720.502      7992.5474      7787.0071      1.8768099     -0.93840497   
      2165   303.15371     -85722.519      4037.9884      7787.0435      1.8774543     -0.93872714   
      2170   306.73152     -85724.683      2204.2647      7787.2837      1.8777288     -0.93886439   
      2175   311.42735     -85726.083      7446.9301      7787.6597      1.8774476     -0.93872378   
      2180   316.90171     -85727.336      5920.4307      7788.3457      1.8771475     -0.93857377   
      2185   316.70974     -85729.309      6212.4775      7789.3144      1.8772198     -0.93860992   
      2190   314.26852     -85730.923      6337.0676      7790.5095      1.8772684     -0.93863419   
      2195   313.33027     -85733.272      1383.0561      7791.8781      1.8773014     -0.93865069   
      2200   309.62599     -85735.392      5677.7123      7793.3572      1.8773149     -0.93865745   
      2205   313.4646      -85737.262     -1374.0873      7795.0392      1.8770977     -0.93854887   
      2210   311.41181     -85739.47      -2009.7986      7796.6995      1.8767023     -0.93835114   
      2215   308.90681     -85741.032     -279.78548      7798.2974      1.8762993     -0.93814963   
      2220   304.18088     -85742.411      8560.0926      7799.9122      1.8759027     -0.93795133   
      2225   305.04771     -85744.369      3250.7283      7801.8358      1.8752825     -0.93764127   
      2230   308.91411     -85746.295      1880.3524      7803.944       1.8743604     -0.93718019   
      2235   311.33994     -85747.705     -535.19556      7806.102       1.8733171     -0.93665856   
      2240   313.01844     -85748.969     -3349.2031      7808.1696      1.8721245     -0.93606223   
      2245   314.16008     -85750.585     -881.3701       7810.0964      1.8706383     -0.93531917   
      2250   312.68781     -85752.143      40.310899      7812.005       1.8686062     -0.93430308   
      2255   305.74867     -85753.746     -2982.0567      7813.89        1.8662709     -0.93313544   
      2260   305.30465     -85754.986     -2304.8143      7815.6193      1.8638436     -0.9319218    
      2265   305.39128     -85756.073      621.29075      7817.2495      1.8613393     -0.93066965   
      2270   306.30361     -85757.664      441.17183      7818.8937      1.8591414     -0.9295707    
      2275   301.70788     -85759.5       -3531.5069      7820.5062      1.8575847     -0.92879234   
      2280   296.28849     -85760.942     -4542.1988      7821.9743      1.8565931     -0.92829654   
      2285   291.8167      -85762.319     -2375.9547      7823.2652      1.8560603     -0.92803014   
      2290   297.19573     -85763.796     -6430.5937      7824.4243      1.8559357     -0.92796783   
      2295   298.30236     -85765.654     -2112.6225      7825.3377      1.8564783     -0.92823913   
      2300   303.93515     -85767.766     -1215.593       7826.0971      1.8579853     -0.92899265   
      2305   300.50497     -85770.352     -7160.6805      7826.7238      1.8602461     -0.93012307   
      2310   296.20056     -85772.874     -7531.0715      7827.0903      1.8630981     -0.93154907   
      2315   296.60795     -85775.38      -1736.8965      7827.1736      1.8658357     -0.93291786   
      2320   309.93633     -85777.746      1139.5837      7827.1201      1.86827       -0.93413498   
      2325   316.93236     -85780.187     -4822.438       7827.0167      1.8704428     -0.9352214    
      2330   316.74618     -85782.63      -4783.2949      7826.6938      1.8725645     -0.93628227   
      2335   306.78018     -85785.088      1404.8609      7826.1823      1.8746531     -0.93732657   
      2340   299.84413     -85787.664     -24.407212      7825.7053      1.876787      -0.93839351   
      2345   291.11129     -85789.923      7438.716       7825.306       1.8787256     -0.9393628    
      2350   294.1306      -85792.146      2221.0062      7825.1704      1.8799729     -0.93998644   
      2355   287.55672     -85793.862      3487.227       7825.2188      1.8804716     -0.94023579   
      2360   285.57552     -85795.513      3513.5654      7825.4478      1.8805447     -0.94027237   
      2365   290.76125     -85797.436     -155.58009      7825.8287      1.8800725     -0.94003623   
      2370   287.38265     -85798.75       3088.3839      7826.2847      1.8787769     -0.93938843   
      2375   289.93004     -85799.712      2656.7179      7826.8569      1.8769384     -0.93846921   
      2380   295.91384     -85801.189      3583.4         7827.542       1.8746823     -0.93734114   
      2385   295.02879     -85802.362      1311.6662      7828.3909      1.8722727     -0.93613636   
      2390   294.06105     -85803.503     -3758.1257      7829.2943      1.8700404     -0.93502019   
      2395   297.35612     -85804.785     -5199.9499      7830.0271      1.8678309     -0.93391547   
      2400   296.42009     -85805.727      210.14734      7830.5331      1.8657038     -0.93285189   
      2405   300.09169     -85807.228      876.22816      7831.033       1.8639525     -0.93197624   
      2410   294.39066     -85808.265     -6264.1612      7831.5633      1.8629505     -0.93147524   
      2415   291.382       -85809.669     -4187.3317      7831.8389      1.862281      -0.93114052   
      2420   295.13583     -85811.445     -1468.467       7831.9047      1.8618486     -0.93092428   
      2425   298.94077     -85812.913     -4671.7172      7831.9242      1.8619074     -0.93095368   
      2430   296.7709      -85814.407     -4253.507       7831.7975      1.8624036     -0.93120181   
      2435   291.26577     -85816.018     -6254.1866      7831.4369      1.8635659     -0.93178297   
      2440   277.5114      -85817.7       -932.8752       7830.8226      1.8650956     -0.93254778   
      2445   272.1945      -85819.42      -1547.5906      7830.1042      1.866694      -0.93334701   
      2450   278.67165     -85821.469      237.30398      7829.2989      1.8676575     -0.93382873   
      2455   294.66637     -85823.239      1883.0042      7828.5162      1.8686302     -0.93431511   
      2460   293.18696     -85824.529      669.98227      7827.8756      1.8699972     -0.9349986    
      2465   288.52245     -85826.171      583.99771      7827.278       1.8717276     -0.9358638    
      2470   279.90303     -85827.99       1983.8233      7826.6889      1.8736243     -0.93681215   
      2475   276.10159     -85829.316      2660.8451      7826.218       1.8752947     -0.93764735   
      2480   279.13233     -85830.926      5190.4724      7825.9087      1.876454      -0.93822702   
      2485   289.62909     -85832.341      2696.9105      7825.8182      1.8770269     -0.93851343   
      2490   295.67481     -85833.411      2075.3732      7825.8984      1.8772012     -0.9386006    
      2495   288.50803     -85834.274      1716.7266      7826.1109      1.8771488     -0.93857442   
      2500   283.33646     -85835.248     -1423.3626      7826.3889      1.8766474     -0.93832372   
      2505   282.57202     -85835.94       3794.0903      7826.6495      1.8757192     -0.93785959   
      2510   286.50292     -85836.942      1618.5383      7827.0252      1.8743706     -0.9371853    
      2515   291.64081     -85837.671     -2700.4068      7827.4714      1.8730881     -0.93654404   
      2520   287.33408     -85837.834      2054.6196      7827.873       1.8720672     -0.93603361   
      2525   288.24601     -85838.818      1357.6972      7828.3342      1.8715715     -0.93578575   
      2530   283.43348     -85839.538     -347.69543      7828.8263      1.8712938     -0.9356469    
      2535   283.53811     -85840.599      506.49683      7829.2996      1.8709921     -0.93549607   
      2540   282.56786     -85841.291      5889.5001      7829.8789      1.8707612     -0.9353806    
      2545   286.82814     -85842.076     -6934.3517      7830.647       1.8704736     -0.93523678   
      2550   279.77573     -85842.554      539.60052      7831.1653      1.8703358     -0.93516788   
      2555   280.96896     -85843.192     -4700.1802      7831.5973      1.8702093     -0.93510463   
      2560   277.79241     -85843.778     -1556.1525      7831.8606      1.8698891     -0.93494455   
      2565   280.29788     -85844.149     -1251.4692      7832.0341      1.8694349     -0.93471744   
      2570   280.67524     -85844.66      -4368.5125      7832.1103      1.8689304     -0.9344652    
      2575   280.47986     -85845.124     -5104.3025      7831.9992      1.868366      -0.93418301   
      2580   276.86712     -85845.402     -1571.377       7831.703       1.8677979     -0.93389896   
      2585   270.67917     -85845.819     -1633.7294      7831.3159      1.8676691     -0.93383453   
      2590   266.88565     -85846.589     -3459.2785      7830.8608      1.8676733     -0.93383664   
      2595   266.70761     -85846.967     -4173.6608      7830.3124      1.8681621     -0.93408105   
      2600   270.22137     -85847.524     -6623.5012      7829.6047      1.8691525     -0.93457625   
      2605   273.25138     -85847.769     -2960.6231      7828.6554      1.8704086     -0.93520431   
      2610   279.61518     -85848.501     -293.86555      7827.5573      1.8716846     -0.93584228   
      2615   279.17453     -85848.698      2982.4699      7826.4135      1.8732708     -0.93663538   
      2620   278.15599     -85849.191      1294.1984      7825.347       1.8749245     -0.93746223   
      2625   281.74331     -85849.808      1481.8034      7824.333       1.876444      -0.93822202   
      2630   284.89911     -85850.087      2632.6735      7823.4232      1.8776795     -0.93883975   
      2635   289.07117     -85850.448     -2120.603       7822.6129      1.8786448     -0.93932242   
      2640   278.93742     -85850.456     -4929.2317      7821.7299      1.879186      -0.93959299   
      2645   269.84614     -85850.096      1431.8825      7820.6706      1.8793659     -0.93968295   
      2650   275.75619     -85850.31       4560.5465      7819.5913      1.8790461     -0.93952307   
      2655   276.069       -85849.807      11491.667      7818.7716      1.8790419     -0.93952095   
      2660   281.01318     -85849.605      125.30212      7818.3793      1.8794385     -0.93971925   
      2665   275.93338     -85849.412     -1666.9514      7818.0125      1.8796495     -0.93982475   
      2670   275.43902     -85849.123     -1212.2896      7817.6063      1.8797935     -0.93989676   
      2675   279.04853     -85848.68       5082.4806      7817.2058      1.8799659     -0.93998294   
      2680   288.03514     -85848.484      5895.6831      7817.0579      1.8801976     -0.94009878   
      2685   291.58693     -85847.765     -4961.4441      7817.1605      1.8809578     -0.94047888   
      2690   288.64226     -85847.586      1187.6781      7817.0934      1.8817977     -0.94089883   
      2695   282.18992     -85847.558      2899.5066      7817.0383      1.8826856     -0.94134279   
      2700   277.55922     -85846.892      2252.9938      7817.1028      1.8832684     -0.9416342    
      2705   280.06284     -85846.704      4475.2496      7817.2424      1.8834567     -0.94172835   
      2710   293.82288     -85846.41       1597.2802      7817.5867      1.8836189     -0.94180946   
      2715   295.8643      -85845.112      212.14268      7818.0826      1.8835367     -0.94176834   
      2720   295.49405     -85844.721      346.43904      7818.5816      1.8833803     -0.94169015   
      2725   285.03436     -85843.818      944.27203      7819.0882      1.8831521     -0.94157607   
      2730   285.53359     -85843.411      5995.6284      7819.6891      1.8827478     -0.94137391   
      2735   290.43993     -85842.802      3696.0004      7820.5617      1.8820621     -0.94103105   
      2740   291.07713     -85841.779      771.81895      7821.6344      1.8809917     -0.94049586   
      2745   284.03741     -85840.621      3787.266       7822.7658      1.8799906     -0.93999532   
      2750   279.93444     -85839.748      930.24418      7824.0038      1.8791144     -0.93955721   
      2755   274.38304     -85838.888      4383.7554      7825.3483      1.8780145     -0.93900726   
      2760   279.53742     -85837.501     -1852.7551      7826.8951      1.8767982     -0.93839911   
      2765   282.03952     -85835.911      5581.0676      7828.4324      1.8753839     -0.93769195   
      2770   293.84235     -85835.182     -1916.6617      7830.0997      1.8738018     -0.9369009    
      2775   286.20002     -85833.579     -852.82045      7831.7221      1.8723689     -0.93618443   
      2780   285.368       -85832.505      1208.6613      7833.3223      1.8708543     -0.93542714   
      2785   282.55133     -85830.566     -2572.458       7834.9624      1.8692835     -0.93464175   
      2790   284.66563     -85829.21      -2930.6675      7836.4783      1.8680704     -0.93403519   
      2795   289.87658     -85828.447     -1608.9146      7837.817       1.8672447     -0.93362235   
      2800   286.47515     -85826.804     -5610.1654      7838.999       1.8667344     -0.93336719   
      2805   287.24702     -85825.364     -6788.9128      7839.91        1.8665161     -0.93325806   
      2810   289.18913     -85824.479     -275.69978      7840.5561      1.8664747     -0.93323733   
      2815   290.55573     -85823.407      1190.6654      7841.1898      1.8667962     -0.93339811   
      2820   287.47687     -85822.317      389.53161      7841.9271      1.8673785     -0.93368926   
      2825   285.72939     -85820.985     -8420.4049      7842.685       1.8683823     -0.93419116   
      2830   290.1985      -85820.469     -6894.3579      7843.1243      1.8692378     -0.93461888   
      2835   294.85139     -85818.743     -5587.7226      7843.222       1.8697011     -0.93485053   
      2840   294.29222     -85817.442      4152.6514      7843.0882      1.8701929     -0.93509645   
      2845   287.71581     -85816.483     -3925.3249      7843.0412      1.870635      -0.93531752   
      2850   278.41478     -85815.275     -2617.2947      7842.8479      1.8704859     -0.93524297   
      2855   279.67705     -85813.527     -2604.5656      7842.5043      1.8693966     -0.93469828   
      2860   284.81012     -85811.847     -5552.5887      7842.0565      1.8677142     -0.9338571    
      2865   285.40354     -85810.015     -1129.4031      7841.4404      1.8661029     -0.93305143   
      2870   284.51429     -85808.15      -7717.403       7840.6793      1.8646755     -0.93233777   
      2875   280.13935     -85806.155     -1080.2635      7839.5829      1.8632696     -0.93163482   
      2880   281.33884     -85804.482     -5399.2221      7838.3405      1.8619942     -0.9309971    
      2885   280.81041     -85802.546     -4830.9179      7836.8881      1.8609627     -0.93048136   
      2890   283.77892     -85801.371     -5617.6224      7835.1908      1.8604588     -0.93022939   
      2895   283.23201     -85800.23      -2875.3496      7833.22        1.8604819     -0.93024097   
      2900   291.05254     -85798.912     -6318.3355      7831.0492      1.8609249     -0.93046244   
      2905   292.02084     -85797.52      -3922.2396      7828.6454      1.8613097     -0.93065483   
      2910   288.9677      -85796.598     -6312.761       7826.1031      1.8621793     -0.93108963   
      2915   287.93585     -85795.15      -3281.8091      7823.3423      1.8631917     -0.93159586   
      2920   290.94529     -85793.584     -3490.73        7820.3845      1.8642273     -0.93211363   
      2925   295.28377     -85792.387     -1529.8919      7817.2408      1.865435      -0.93271748   
      2930   290.6775      -85791.077      478.51202      7814.0124      1.8672139     -0.93360693   
      2935   289.7748      -85789.907     -4319.1533      7810.7586      1.8690444     -0.93452222   
      2940   292.10095     -85788.411      2275.3094      7807.3567      1.8705851     -0.93529255   
      2945   298.30479     -85786.834      4214.0304      7804.0475      1.8719724     -0.93598618   
      2950   301.81615     -85785.035      2159.7999      7800.9598      1.8733589     -0.93667945   
      2955   299.42004     -85783.143      625.97813      7797.9925      1.8745661     -0.93728306   
      2960   297.51155     -85781.809      7719.6982      7795.1024      1.875261      -0.93763051   
      2965   302.29103     -85779.964      8021.6842      7792.5784      1.8755763     -0.93778815   
      2970   304.64085     -85777.809      2370.3853      7790.4215      1.875391      -0.93769549   
      2975   311.61879     -85776.019     -146.16406      7788.3878      1.8749251     -0.93746257   
      2980   312.66414     -85774.099      95.055359      7786.3976      1.8744943     -0.93724717   
      2985   300.66043     -85772.074      7805.8979      7784.5183      1.8740581     -0.93702907   
      2990   296.38891     -85769.946      2383.6855      7782.9776      1.873217      -0.9366085    
      2995   292.85607     -85767.99       1943.2514      7781.6292      1.8720322     -0.93601611   
      3000   290.1864      -85765.563      1617.8206      7780.4003      1.870768      -0.935384     
      3005   296.46552     -85763.757      3525.2327      7779.2554      1.8695062     -0.93475312   
      3010   297.56196     -85761.519      82.636181      7778.2644      1.8684257     -0.93421283   
      3015   295.41193     -85759.588      545.68307      7777.3446      1.8680651     -0.93403253   
      3020   292.53861     -85757.596      5137.4367      7776.4972      1.868145      -0.93407252   
      3025   297.36433     -85755.666      7161.6455      7775.8671      1.8683069     -0.93415347   
      3030   304.64781     -85753.998      3746.8125      7775.54        1.8685838     -0.93429192   
      3035   311.94984     -85752.2        2364.1325      7775.4113      1.8691838     -0.93459189   
      3040   316.60493     -85750.497      1962.5948      7775.3916      1.8699015     -0.93495076   
      3045   311.75922     -85748.852      9254.225       7775.5017      1.8705673     -0.93528367   
      3050   311.32351     -85747.679      6209.1857      7775.9838      1.8713406     -0.93567031   
      3055   312.08058     -85746.173      5833.2524      7776.7737      1.8720457     -0.93602287   
      3060   320.38878     -85744.705      1037.0844      7777.7733      1.8724891     -0.93624454   
      3065   318.90177     -85743.008      3515.0754      7778.8262      1.8728775     -0.93643874   
      3070   318.02583     -85742.078      4379.9113      7779.9837      1.8735281     -0.93676405   
      3075   311.23282     -85740.764      7595.9539      7781.44        1.8740399     -0.93701994   
      3080   306.28824     -85739.34       1973.3013      7783.2466      1.8743183     -0.93715916   
      3085   306.96061     -85738.012     -1754.4944      7785.1603      1.8742007     -0.93710033   
      3090   310.18743     -85736.613      1479.9643      7787.0586      1.8737046     -0.93685229   
      3095   319.74686     -85734.888      693.18023      7789.0354      1.8728307     -0.93641536   
      3100   322.72912     -85733.633      7846.7695      7791.0959      1.8717289     -0.93586446   
      3105   325.15133     -85732.194      4280.9305      7793.4513      1.8701484     -0.93507419   
      3110   319.10618     -85730.179      2545.3815      7796.0388      1.8679971     -0.93399855   
      3115   320.09701     -85728.115     -4961.6912      7798.6902      1.865567      -0.93278348   
      3120   318.85619     -85726.363     -2617.2059      7801.1166      1.8628209     -0.93141046   
      3125   316.01773     -85724.277     -3453.3024      7803.358       1.8603052     -0.93015261   
      3130   311.16218     -85722.632     -149.40277      7805.4288      1.8581935     -0.92909675   
      3135   307.05057     -85721.336     -5543.7579      7807.4288      1.8564279     -0.92821397   
      3140   306.96888     -85719.968     -4155.8743      7809.2071      1.8548966     -0.92744832   
      3145   315.26102     -85718.33      -6844.668       7810.7291      1.8535288     -0.92676441   
      3150   321.3701      -85716.915     -3409.2166      7811.9459      1.8523845     -0.92619225   
      3155   324.09289     -85716.086     -3151.8026      7812.9751      1.8518969     -0.92594844   
      3160   317.40652     -85715.071     -4052.6244      7813.82        1.8523664     -0.92618321   
      3165   310.07539     -85714.497     -6076.4597      7814.3694      1.8532813     -0.92664066   
      3170   305.65593     -85714.392     -3688.3542      7814.6333      1.8547624     -0.92738119   
      3175   307.26923     -85713.671     -6107.0077      7814.7006      1.8564863     -0.92824313   
      3180   318.52403     -85713.19       669.96411      7814.496       1.8586195     -0.92930974   
      3185   324.19577     -85713.487     -1956.9432      7814.2263      1.8613284     -0.9306642    
      3190   320.79549     -85714.144     -98.246131      7813.8781      1.8646327     -0.93231633   
      3195   324.65404     -85714.132     -3212.1312      7813.4542      1.8680395     -0.93401977   
      3200   324.80243     -85713.921      9004.6031      7812.9605      1.8712083     -0.93560415   
      3205   331.85606     -85714.06       2136.7364      7812.741       1.8738369     -0.93691846   
      3210   330.54255     -85715.167      8006.9133      7812.7039      1.8762195     -0.93810977   
      3215   329.29609     -85714.509     -2584.051       7812.9636      1.8784983     -0.93924913   
      3220   322.76444     -85714.118     -1552.4432      7813.1857      1.8804262     -0.94021308   
      3225   324.0584      -85714.719      4637.4979      7813.3525      1.8818448     -0.94092238   
      3230   321.66471     -85714.855      7280.1782      7813.8183      1.8828309     -0.94141545   
      3235   317.26762     -85714.531      3133.4485      7814.6905      1.8833268     -0.9416634    
      3240   317.02439     -85714.446      525.73126      7815.7182      1.8834308     -0.9417154    
      3245   317.89422     -85714.25       4558.8983      7816.8283      1.8828316     -0.94141579   
      3250   318.58287     -85713.917      5246.4355      7818.1695      1.8817307     -0.94086537   
      3255   319.38346     -85714.522      2378.6561      7819.8052      1.8801584     -0.9400792    
      3260   315.74236     -85713.724      6430.9764      7821.639       1.8785136     -0.93925681   
      3265   312.18835     -85713.43       420.30193      7823.6699      1.8768619     -0.93843095   
      3270   308.03306     -85713.205     -1856.8963      7825.7183      1.8750842     -0.93754212   
      3275   313.40065     -85712.582      2435.6784      7827.6934      1.8731662     -0.93658311   
      3280   314.60425     -85711.929      2859.0253      7829.712       1.870954      -0.93547701   
      3285   319.37032     -85711.793     -3055.1423      7831.7843      1.8687625     -0.93438124   
      3290   318.49111     -85711.35       5585.7254      7833.7775      1.8667233     -0.93336167   
      3295   323.848       -85710.824      1240.9428      7835.9116      1.8648433     -0.93242167   
      3300   324.14904     -85710.549     -6028.837       7838.0479      1.8630423     -0.93152116   
      3305   326.43286     -85710.851     -4881.0261      7839.9156      1.8618205     -0.93091024   
      3310   321.05254     -85711.095     -2673.3373      7841.557       1.8612043     -0.93060217   
      3315   308.70419     -85711.167     -5240.1428      7843.0484      1.8610999     -0.93054995   
      3320   309.69363     -85711.564     -4606.2733      7844.3312      1.8611439     -0.93057197   
      3325   312.96199     -85712.374      680.63867      7845.4248      1.8612668     -0.9306334    
      3330   322.14158     -85712.837     -5171.6707      7846.4681      1.8618256     -0.93091279   
      3335   316.87079     -85713.503     -1725.316       7847.3301      1.8626902     -0.93134509   
      3340   310.43198     -85714.077     -3483.2064      7848.02        1.8637667     -0.93188335   
      3345   306.84159     -85715.012     -4339.9694      7848.4801      1.8645883     -0.93229415   
      3350   306.41046     -85716.179     -2882.2035      7848.7245      1.8653071     -0.93265356   
      3355   312.44306     -85716.613      1006.475       7848.8814      1.8659148     -0.93295742   
      3360   314.35254     -85717.485     -3188.3155      7848.9991      1.866754      -0.93337702   
      3365   313.27698     -85719.071     -8032.5972      7848.9032      1.8681354     -0.9340677    
      3370   301.31411     -85720.254     -739.65263      7848.4975      1.869581      -0.93479048   
      3375   306.85355     -85721.346     -3928.3121      7847.9639      1.8707089     -0.93535445   
      3380   312.71674     -85722.119     -195.0309       7847.2893      1.8713023     -0.93565116   
      3385   324.55731     -85723.027      1849.6298      7846.5947      1.8713813     -0.93569064   
      3390   322.06209     -85723.592      2490.1647      7845.99        1.8713787     -0.93568935   
      3395   317.91371     -85724.229     -4223.6051      7845.4564      1.8713265     -0.93566323   
      3400   310.80435     -85724.894     -2462.897       7844.7738      1.8705043     -0.93525217   
      3405   310.24349     -85725.42      -3143.5627      7843.978       1.8691814     -0.93459071   
      3410   310.65662     -85725.764      3329.834       7843.0982      1.8676177     -0.93380885   
      3415   310.58134     -85726.721      1366.4163      7842.2931      1.8661144     -0.93305722   
      3420   310.47374     -85727.489     -2303.3839      7841.5228      1.8650746     -0.93253729   
      3425   311.37312     -85728.626     -2863.1299      7840.7055      1.8646206     -0.93231032   
      3430   310.48959     -85729.392      1330.5372      7839.8298      1.8643184     -0.93215919   
      3435   314.63587     -85730.219     -254.66198      7839.0148      1.8639778     -0.9319889    
      3440   308.34307     -85730.988     -55.922961      7838.2117      1.8637756     -0.93188778   
      3445   318.32735     -85732.445     -1794.4719      7837.3955      1.8635437     -0.93177186   
      3450   322.92949     -85733.526      1078.0944      7836.54        1.8633902     -0.9316951    
      3455   325.60855     -85735.082     -2373.0726      7835.6568      1.8636332     -0.9318166    
      3460   323.8639      -85736.781     -4956.1506      7834.6691      1.8642769     -0.93213847   
      3465   318.96175     -85738.262     -460.65269      7833.531       1.8650919     -0.93254593   
      3470   317.51465     -85739.681      3236.7587      7832.3892      1.8656318     -0.93281589   
      3475   322.61794     -85741.142      815.04014      7831.3818      1.8658973     -0.93294865   
      3480   325.65275     -85742.667     -1809.1605      7830.4523      1.8657487     -0.93287434   
      3485   324.67052     -85744.117     -2475.6035      7829.4751      1.8653443     -0.93267213   
      3490   321.25441     -85745.749     -5296.2734      7828.3661      1.8649146     -0.93245731   
      3495   314.7546      -85747.371     -1340.1311      7827.0699      1.8642337     -0.93211686   
      3500   303.13835     -85748.936      739.4962       7825.7649      1.8638765     -0.93193823   
      3505   292.88745     -85750.611     -2190.5988      7824.5103      1.8637042     -0.93185212   
      3510   290.47157     -85752.172     -5283.3366      7823.1595      1.863882      -0.931941     
      3515   291.53122     -85753.829     -2029.1938      7821.657       1.8642807     -0.93214035   
      3520   294.53495     -85755.822      1077.5644      7820.0518      1.8649529     -0.93247643   
      3525   295.5172      -85757.703     -1319.2203      7818.4433      1.8661915     -0.93309576   
      3530   289.80241     -85759.223      2160.8032      7816.8356      1.8675906     -0.93379528   
      3535   292.64156     -85761.054      4974.8969      7815.3169      1.8689967     -0.93449836   
      3540   301.95062     -85762.934      1644.9046      7814.0042      1.8705348     -0.93526741   
      3545   308.09755     -85765.155      1089.1352      7812.8265      1.8719539     -0.93597693   
      3550   309.70514     -85766.742      1965.251       7811.7117      1.8734197     -0.93670984   
      3555   303.2833      -85768.345      8522.401       7810.7156      1.8751926     -0.93759632   
      3560   296.61764     -85770.264      4432.8303      7810.0343      1.8768619     -0.93843097   
      3565   295.14187     -85772.076      1205.6422      7809.5697      1.878446      -0.939223     
      3570   295.0019      -85773.977      5248.4698      7809.2489      1.8796954     -0.93984771   
      3575   299.34903     -85775.551      3597.6065      7809.1781      1.8805516     -0.94027581   
      3580   297.48916     -85776.878      4433.6362      7809.2721      1.88118       -0.94059001   
      3585   291.94112     -85778.689      2962.706       7809.5098      1.8813582     -0.94067909   
      3590   294.58671     -85780.249      1436.1412      7809.8825      1.88111       -0.940555     
      3595   289.55965     -85781.483      6229.9934      7810.3833      1.8803277     -0.94016387   
      3600   299.79682     -85782.691      1165.1621      7811.1501      1.8789502     -0.93947509   
      3605   298.25997     -85783.34       3343.2762      7812.0368      1.8771284     -0.93856422   
      3610   306.3475      -85784.602     -152.97021      7813.0462      1.875181      -0.93759048   
      3615   297.92444     -85785.29       3445.6239      7814.1056      1.8730785     -0.93653925   
      3620   294.5282      -85785.955      562.15884      7815.2937      1.871243      -0.93562152   
      3625   290.74108     -85786.198     -2426.4166      7816.4855      1.8691458     -0.93457291   
      3630   300.28903     -85786.955     -3115.3279      7817.5422      1.8667864     -0.93339319   
      3635   297.88549     -85787.863     -4013.8965      7818.4081      1.8647723     -0.93238616   
      3640   298.60596     -85788.811     -1772.3874      7819.1177      1.8634431     -0.93172155   
      3645   290.49491     -85789.811      2726.7892      7819.7601      1.8626592     -0.93132958   
[...]
      4090   292.59214     -85808.587      165.91808      7811.8202      1.8772902     -0.93864512   
      4095   288.68737     -85807.347      8825.4017      7810.3124      1.8775057     -0.93875286   
      4100   293.3986      -85805.821      3648.9757      7809.1494      1.8777322     -0.9388661    
      4105   295.75304     -85804.794     -1701.668       7808.1792      1.8778769     -0.93893844   
      4110   297.0713      -85803.39      -1616.7935      7807.1362      1.8777148     -0.93885741   
      4115   296.08022     -85802.097      425.32115      7806.0404      1.8777263     -0.93886316   
      4120   304.58118     -85801.025      2453.4933      7804.9431      1.8777106     -0.93885531   
      4125   305.84249     -85799.528      3965.1337      7803.9732      1.877417      -0.93870848   
      4130   295.40814     -85797.92       5360.0142      7803.2387      1.8775228     -0.93876141   
      4135   291.03512     -85796.573      4634.7689      7802.722       1.8778806     -0.93894031   
      4140   294.98683     -85795.545      2287.3822      7802.3865      1.8780755     -0.93903774   
      4145   300.22128     -85794.507      8130.7989      7802.225       1.8781452     -0.93907259   
      4150   302.88609     -85793.536      6518.8831      7802.4645      1.8783007     -0.93915034   
      4155   302.051       -85792.255     -423.2546       7803.0094      1.8786898     -0.93934491   
      4160   297.19354     -85790.995      2533.7914      7803.5703      1.8790602     -0.9395301    
      4165   295.77137     -85790.15       7616.2266      7804.2498      1.8788315     -0.93941573   
      4170   292.66042     -85788.821      2194.6145      7805.2326      1.8781914     -0.93909571   
      4175   293.21846     -85786.965      3512.7087      7806.3736      1.8773287     -0.93866435   
      4180   294.92307     -85785.291      1382.7318      7807.6266      1.8759641     -0.93798204   
      4185   298.74947     -85784.039      2541.0116      7808.9607      1.8746895     -0.93734475   
      4190   296.28876     -85782.478     -1257.5361      7810.4252      1.8736563     -0.93682813   
      4195   296.25829     -85780.815     -1046.1756      7811.8418      1.872615      -0.93630752   
      4200   298.35422     -85778.965     -2314.4173      7813.1486      1.8715733     -0.93578665   
      4205   303.81953     -85777.271      2130.6029      7814.3428      1.8705896     -0.9352948    
      4210   302.06069     -85776.005     -1851.812       7815.545       1.8697756     -0.93488779   
      4215   300.96562     -85774.35       2758.5947      7816.6766      1.8692195     -0.93460974   
      4220   301.72513     -85773.261     -3610.325       7817.7911      1.8691794     -0.93458969   
      4225   296.13119     -85771.936     -4596.5662      7818.7524      1.8694355     -0.93471773   
      4230   293.08042     -85770.645     -1235.7052      7819.5469      1.8696959     -0.93484795   
      4235   297.95645     -85769.207     -3197.3721      7820.2636      1.8698709     -0.93493544   
      4240   306.30451     -85768.086     -1890.5648      7820.853       1.869782      -0.93489099   
      4245   306.65487     -85766.47      -4394.8773      7821.328       1.869831      -0.93491549   
      4250   307.8231      -85765.152     -2646.777       7821.5845      1.8699163     -0.93495814   
      4255   298.77382     -85763.527      1092.4199      7821.7297      1.8699832     -0.93499161   
      4260   301.59011     -85762.339     -1611.0566      7821.8599      1.8699519     -0.93497596   
      4265   303.37424     -85761.227      3006.5018      7821.9391      1.8699602     -0.93498012   
      4270   308.26149     -85760.167     -2655.858       7822.1124      1.8701634     -0.93508171   
      4275   305.80997     -85758.818     -1487.6753      7822.2038      1.8705918     -0.93529591   
      4280   308.03075     -85757.764      1257.5261      7822.2405      1.8712036     -0.93560178   
      4285   302.02772     -85756.562     -2956.9463      7822.2835      1.8717662     -0.93588308   
      4290   299.65484     -85755.287     -3554.0025      7822.1911      1.8722359     -0.93611794   
      4295   301.09958     -85754.323      2031.6392      7821.9556      1.87235       -0.93617499   
      4300   302.24044     -85753.2        145.54934      7821.7543      1.8726586     -0.93632928   
      4305   302.8767      -85752.004      2306.3369      7821.5841      1.8732572     -0.93662859   
      4310   304.47872     -85751.184     -3768.9792      7821.4286      1.8739367     -0.93696837   
      4315   301.31388     -85750.147      1792.9251      7821.1782      1.874714      -0.93735699   
      4320   297.0572      -85749          757.95102      7820.9794      1.8753643     -0.93768216   
      4325   307.98144     -85748.06       551.18985      7820.8146      1.8755868     -0.93779342   
      4330   311.56353     -85746.737      3712.5609      7820.7382      1.8755147     -0.93775734   
      4335   311.05512     -85745.551      5002.1801      7820.8145      1.8755062     -0.93775308   
      4340   307.73354     -85744.579      5226.3034      7821.0897      1.8752781     -0.93763903   
      4345   300.81256     -85743.22       6949.7214      7821.644       1.8748621     -0.93743107   
      4350   301.51465     -85742.277      2349.3738      7822.5249      1.874061      -0.93703052   
      4355   309.73128     -85740.767     -1051.9632      7823.5338      1.872845      -0.93642252   
      4360   308.889       -85739.563      4967.7819      7824.5951      1.871349      -0.93567448   
      4365   311.52437     -85737.839     -1361.2869      7825.8506      1.869689      -0.93484448   
      4370   306.26275     -85736.357      1019.1325      7827.0957      1.8680471     -0.93402357   
      4375   310.40979     -85734.9        2485.9454      7828.3516      1.8663837     -0.93319186   
      4380   308.77607     -85733.57       3627.635       7829.6787      1.8649153     -0.93245766   
      4385   311.16114     -85732.395     -559.99157      7831.139       1.8637337     -0.93186685   
      4390   307.87922     -85731.512     -1916.745       7832.5855      1.8631093     -0.93155465   
      4395   308.66619     -85730.187     -6873.8577      7833.8992      1.8627358     -0.93136792   
      4400   305.26227     -85729.198      860.64425      7834.9189      1.8623744     -0.93118718   
      4405   306.70596     -85728.576     -1786.8607      7835.8855      1.8622653     -0.93113265   
      4410   308.35357     -85727.221     -1126.2743      7836.8003      1.8624324     -0.93121618   
      4415   316.93365     -85726.722      756.48598      7837.6663      1.8628589     -0.93142946   
      4420   322.52577     -85726.212     -899.09596      7838.5536      1.863955      -0.9319775    
      4425   323.46558     -85725.803     -466.92201      7839.4291      1.8656272     -0.93281358   
      4430   321.35364     -85725.393      890.74906      7840.3279      1.8676724     -0.93383618   
      4435   327.98999     -85725.238     -855.31038      7841.2251      1.8697595     -0.93487976   
      4440   333.64677     -85725.152      303.28556      7842.0697      1.871276      -0.935638     
      4445   331.95434     -85725.028      6030.5414      7842.9847      1.8728043     -0.93640216   
      4450   328.46307     -85724.602     -2635.3104      7844.1681      1.8742597     -0.93712986   
      4455   326.68463     -85724.479     -3086.3361      7845.2758      1.8752423     -0.93762113   
      4460   323.41357     -85724.332     -2749.7251      7846.2104      1.8757338     -0.93786688   
      4465   322.50947     -85723.964      1371.2         7847.0475      1.8760517     -0.93802587   
      4470   322.20105     -85724.049      1506.3664      7847.931       1.8760589     -0.93802947   
      4475   320.89379     -85723.79       1382.849       7848.9616      1.8757761     -0.93788803   
      4480   317.51271     -85723.33       1705.5162      7850.0964      1.8752376     -0.9376188    
      4485   322.7223      -85723.464     -826.43052      7851.2328      1.8745286     -0.9372643    
      4490   321.07739     -85723.297      2210.0957      7852.3428      1.8738423     -0.93692117   
      4495   318.84748     -85722.946     -4575.8248      7853.5113      1.8730693     -0.93653465   
      4500   319.85203     -85722.63      -6514.2492      7854.5031      1.8719109     -0.93595544   
      4505   318.82585     -85722.413     -4572.5227      7855.2415      1.8705459     -0.93527297   
      4510   322.54958     -85721.937     -121.38768      7855.7907      1.8691767     -0.93458835   
      4515   323.97117     -85721.675      2722.1077      7856.328       1.867912      -0.93395598   
      4520   328.77391     -85722.13      -4833.4137      7856.9254      1.8667807     -0.93339034   
      4525   326.82683     -85722.518     -2130.7857      7857.377       1.8659523     -0.93297614   
      4530   319.87977     -85722.758     -5402.9324      7857.7555      1.8657041     -0.93285207   
      4535   303.14285     -85722.649     -1458.8232      7857.9524      1.8659265     -0.93296326   
      4540   303.00854     -85723.472     -2915.8943      7858.0352      1.8666549     -0.93332745   
      4545   297.71162     -85723.965      1100.021       7858.0059      1.867478      -0.93373902   
      4550   303.01055     -85724.85      -3528.9081      7857.9341      1.8685848     -0.93429242   
      4555   299.51691     -85725.507      1292.7326      7857.7613      1.8699749     -0.93498746   
      4560   301.42547     -85726.28      -2543.3833      7857.5892      1.8717645     -0.93588224   
      4565   301.53573     -85727.228     -4167.3899      7857.3169      1.8735447     -0.93677237   
      4570   307.05389     -85728.417     -3449.7088      7856.8691      1.8751711     -0.93758555   
      4575   311.40052     -85728.988     -245.83091      7856.2926      1.8767054     -0.93835272   
      4580   319.02895     -85729.333     -2504.9101      7855.6965      1.8777965     -0.93889827   
      4585   319.99482     -85730.364      4172.861       7855.043       1.8784157     -0.93920784   
      4590   320.04097     -85730.699     -1252.9364      7854.5186      1.8790952     -0.93954761   
      4595   315.40458     -85731.667      19.206723      7853.9888      1.8794631     -0.93973155   
      4600   313.67202     -85732.152     -202.77582      7853.4612      1.8795301     -0.93976504   
      4605   317.09855     -85732.696     -2922.0243      7852.9119      1.8791915     -0.93959577   
      4610   322.72442     -85733.229     -111.23508      7852.2388      1.8786843     -0.93934215   
      4615   315.67166     -85733.583      5880.6934      7851.5582      1.8782122     -0.93910609   
      4620   309.70505     -85734.247     -342.09878      7851.0419      1.8775127     -0.93875636   
      4625   298.05515     -85734.558      6535.6627      7850.5747      1.876612      -0.93830601   
      4630   294.32538     -85734.887      2942.146       7850.3636      1.8754997     -0.93774986   
      4635   300.46856     -85735.256      150.20251      7850.3195      1.8743706     -0.93718528   
      4640   306.64998     -85735.803      3772.3543      7850.3196      1.8733373     -0.93666863   
      4645   311.12581     -85736.203      6.8326223      7850.4664      1.8725114     -0.93625568   
      4650   307.79636     -85736.692     -568.48459      7850.6965      1.8719234     -0.93596169   
      4655   301.49001     -85737.573      2795.5399      7850.9274      1.8717423     -0.93587114   
      4660   302.10086     -85738.726      5644.7343      7851.242       1.8716194     -0.93580969   
      4665   304.82311     -85739.712      2088.5217      7851.7628      1.8713868     -0.93569338   
      4670   309.77804     -85740.249     -4001.9415      7852.3461      1.8708696     -0.93543481   
      4675   312.32333     -85741.575     -1931.3972      7852.7904      1.8702454     -0.93512269   
      4680   309.60674     -85742.216     -1864.2148      7853.1853      1.8695638     -0.93478192   
      4685   301.31955     -85742.754     -957.32567      7853.5589      1.8689765     -0.93448823   
      4690   293.69859     -85743.033     -1455.9599      7853.8987      1.8685176     -0.9342588    
      4695   300.06469     -85743.969     -4242.0614      7854.1434      1.8678058     -0.93390292   
      4700   309.13        -85744.709     -1673.4878      7854.2102      1.8667378     -0.93336892   
      4705   312.85827     -85744.932     -3258.7629      7854.1782      1.8658751     -0.93293754   
      4710   310.56448     -85746.004     -1592.4027      7854.0163      1.8652494     -0.93262472   
      4715   301.7285      -85746.308     -2999.1966      7853.737       1.8645282     -0.9322641    
      4720   299.42299     -85747.398     -2358.2297      7853.2928      1.8636639     -0.93183197   
      4725   300.74124     -85748.089     -3574.8015      7852.7335      1.8627169     -0.93135843   
      4730   301.53176     -85749.065     -6021.9499      7852.0179      1.8618029     -0.93090147   
      4735   306.85102     -85749.954     -7947.472       7851.0444      1.8609019     -0.93045096   
      4740   297.57588     -85750.526     -1089.9048      7849.7899      1.8602288     -0.93011438   
      4745   288.12986     -85751.197     -6578.2715      7848.3922      1.8598811     -0.92994055   
      4750   292.01079     -85752.518     -7751.4189      7846.6729      1.8593358     -0.92966792   
      4755   297.6075      -85753.552     -4217.0507      7844.6065      1.8588965     -0.92944827   
      4760   309.75973     -85754.565     -3911.5251      7842.339       1.8590066     -0.92950328   
      4765   310.32007     -85755.65      -2617.7174      7839.898       1.8597533     -0.92987667   
      4770   307.58569     -85757.069     -7479.0335      7837.2901      1.8612922     -0.93064611   
      4775   300.22343     -85758.551     -8140.2248      7834.3633      1.8631532     -0.93157659   
      4780   302.07578     -85760.565     -1649.109       7831.0983      1.8649788     -0.93248938   
      4785   308.78816     -85761.68       1859.4956      7827.724       1.8667981     -0.93339905   
      4790   309.92174     -85763.647     -1208.3603      7824.3413      1.8687146     -0.93435731   
      4795   309.34536     -85765.028     -1499.3731      7820.9256      1.8710194     -0.93550968   
      4800   303.25657     -85766.806      2507.7257      7817.485       1.8737395     -0.93686976   
      4805   299.97871     -85768.273      3375.7814      7814.1465      1.8762717     -0.93813586   
      4810   296.88801     -85769.286      4866.3678      7811.0076      1.878438      -0.939219     
      4815   297.36898     -85770.907      35.710401      7808.0821      1.8803861     -0.94019306   
      4820   300.59918     -85772.297      862.13721      7805.1878      1.8817949     -0.94089746   
      4825   299.51751     -85773.24       9869.8675      7802.4011      1.8828798     -0.9414399    
      4830   307.5326      -85774.027      2172.4892      7799.9843      1.8839237     -0.94196185   
      4835   301.74443     -85775.381      6639.3478      7797.7507      1.884736      -0.94236801   
      4840   303.27395     -85776.262      2906.971       7795.8205      1.8853404     -0.94267021   
      4845   301.56362     -85776.806      6122.9958      7794.1028      1.8856254     -0.94281268   
      4850   305.383       -85777.983      10491.225      7792.6314      1.8852988     -0.94264941   
      4855   304.52241     -85778.516      8784.3236      7791.6196      1.8848872     -0.94244361   
      4860   307.98706     -85779.527      2013.3291      7791.0187      1.8846377     -0.94231885   
      4865   300.91217     -85780.46       7446.64        7790.5997      1.8844572     -0.94222858   
      4870   297.92773     -85781.745      7751.1018      7790.5014      1.8845136     -0.94225682   
      4875   293.77765     -85782.882      4587.0679      7790.7444      1.884971      -0.94248549   
      4880   293.96509     -85783.924      5485.9577      7791.2483      1.8852883     -0.94264414   
      4885   294.71107     -85784.712      7071.5385      7792.0068      1.8848959     -0.94244794   
      4890   299.26135     -85785.646      12453.539      7793.0667      1.8840369     -0.94201845   
      4895   310.92825     -85786.833      4293.3314      7794.5649      1.8829882     -0.94149412   
      4900   307.44367     -85787.711      2774.1836      7796.2845      1.8816834     -0.94084169   
      4905   301.64602     -85788.292      4383.5299      7798.1276      1.8801942     -0.94009712   
      4910   295.94264     -85789.605      3761.9958      7800.153       1.8782349     -0.93911745   
      4915   293.60099     -85790          4238.736       7802.3725      1.8758455     -0.93792276   
      4920   299.23757     -85790.835      3196.2562      7804.7891      1.8734458     -0.9367229    
      4925   297.93461     -85791.471      382.74362      7807.3618      1.871317      -0.9356585    
      4930   293.24743     -85792.136      1366.9441      7809.9732      1.8696575     -0.93482875   
      4935   285.41549     -85792.855      405.7995       7812.6142      1.8687239     -0.93436195   
      4940   274.91447     -85793.652      654.7351       7815.2518      1.8681659     -0.93408297   
      4945   274.43752     -85794.518     -3114.461       7817.8992      1.8678026     -0.93390131   
      4950   281.59294     -85794.931     -552.30448      7820.4133      1.8674751     -0.93373754   
      4955   287.45572     -85796.244      2590.3859      7822.8356      1.8673514     -0.93367571   
      4960   293.71343     -85797.534      1300.3739      7825.3694      1.8678076     -0.93390381   
      4965   292.21979     -85797.904     -4682.798       7827.9815      1.8687235     -0.93436173   
      4970   286.04521     -85798.988     -5152.5322      7830.3992      1.8698781     -0.93493906   
      4975   284.0418      -85799.63      -3652.6826      7832.5503      1.8708322     -0.93541608   
      4980   287.75598     -85800.58       5272.7945      7834.5227      1.8713464     -0.93567319   
      4985   293.93929     -85801.745      4229.1593      7836.6923      1.8716546     -0.93582731   
      4990   293.21275     -85802.119      3649.2257      7839.087       1.8719756     -0.93598779   
      4995   291.54511     -85802.78       782.02254      7841.5915      1.8722787     -0.93613937   
      5000   283.89319     -85803.442     -820.2496       7844.0987      1.8725205     -0.93626027   
Loop time of 283.589 on 4 procs for 5000 steps with 576 atoms

Performance: 0.762 ns/day, 31.510 hours/ns, 17.631 timesteps/s, 10.156 katom-step/s
98.9% CPU use with 4 MPI tasks x no OpenMP threads

MPI task timing breakdown:
Section |  min time  |  avg time  |  max time  |%varavg| %total
---------------------------------------------------------------
Pair    | 185.39     | 187.91     | 189.75     |  12.8 | 66.26
Bond    | 0.0022402  | 0.0027842  | 0.003473   |   0.9 |  0.00
Neigh   | 47.541     | 48.088     | 48.475     |   4.9 | 16.96
Comm    | 2.2112     | 4.0312     | 6.5171     |  86.5 |  1.42
Output  | 0.10007    | 0.10595    | 0.11903    |   2.3 |  0.04
Modify  | 42.989     | 43.386     | 43.96      |   5.4 | 15.30
Other   |            | 0.06171    |            |       |  0.02

Nlocal:            144 ave         148 max         142 min
Histogram: 1 2 0 0 0 0 0 0 0 1
Nghost:        3486.75 ave        3516 max        3453 min
Histogram: 1 0 0 0 0 1 1 0 0 1
Neighs:        68077.5 ave       70293 max       67032 min
Histogram: 2 0 1 0 0 0 0 0 0 1

Total # of neighbors = 272310
Ave neighs/atom = 472.76042
Ave special neighs/atom = 0
Neighbor list builds = 1000
Dangerous builds not checked

write_data silica-relaxed.data
System init for write_data ...
Total wall time: 0:04:43
