LAMMPS data file via write_data, version 2 Aug 2023, timestep = 30000, units = real

1491 atoms
5 atom types
686 bonds
1 bond types
343 angles
1 angle types

-12.120000000000001 12.120000000000001 xlo xhi
-12.120000000000001 12.120000000000001 ylo yhi
-28.28 28.28 zlo zhi

Masses

1 15.9994
2 1.008
3 28.99
4 35.453
5 26.9815

Pair Coeffs # lj/cut/tip4p/long

1 0.185199 3.1589
2 0 0
3 0.0469 2.4299
4 0.15 4.0447
5 11.697 2.574

Bond Coeffs # harmonic

1 0 0.9572

Angle Coeffs # harmonic

1 0 104.52

Atoms # full

478 16 1 -1.1128 -8.78948094400715 -9.814866959001092 -6.429444432767391 0 0 0
86 0 5 0 -10.87094252504506 -10.033230062693592 -9.105383761931735 0 0 0
1130 233 2 0.5564 -8.607933053294927 -7.867941971248719 -2.359689902642081 0 0 0
1131 233 2 0.5564 -9.215922710769549 -7.011200219422822 -3.449752834295622 0 0 0
1122 230 2 0.5564 8.513540714278154 -4.307980656808639 -0.39371123034870137 0 0 0
1129 233 1 -1.1128 -8.911869088511027 -7.9001909846760725 -3.266781253523779 0 0 0
484 18 1 -1.1128 -6.850597123136037 -7.915685346440277 -6.411333336908368 0 0 0
667 79 1 -1.1128 -6.594193043965374 -10.353381249510694 -1.3857333218564125 0 0 0
669 79 2 0.5564 -6.2143925558692485 -10.7159738860356 -0.585414641684247 0 0 0
668 79 2 0.5564 -7.266659869155327 -9.745538672909024 -1.078247383373469 0 0 0
451 7 1 -1.1128 -11.20234831457869 -8.393335840194887 -6.400118318350287 1 0 0
544 38 1 -1.1128 -8.804531042644236 -5.79025354409793 -6.614996156911796 0 0 0
545 38 2 0.5564 -7.996445296911811 -5.297493116247915 -6.472109941423323 0 0 0
542 37 2 0.5564 -10.10207176955122 -11.135866003029378 -6.716668509940143 0 0 0
452 7 2 0.5564 -11.900086045313742 -9.048545934201444 -6.390464737035147 1 0 0
453 7 2 0.5564 -10.394026509817092 -8.902661066842969 -6.341505051520034 1 0 0
480 16 2 0.5564 -8.16111939829344 -10.535786271202515 -6.470295410389858 0 0 0
543 37 2 0.5564 -11.21071452980149 -11.615505596120416 -5.804115928357928 0 0 0
485 18 2 0.5564 -6.269362079275597 -7.262217798245887 -6.0222603492491835 0 0 0
479 16 2 0.5564 -8.26921910684981 -9.032413689547754 -6.61199906534532 0 0 0
546 38 2 0.5564 -8.539823804470759 -6.53328917575917 -7.157269120732931 0 0 0
486 18 2 0.5564 -6.260906438301312 -8.584774357380146 -6.758920098785912 0 0 0
1153 241 1 -1.1128 -6.825432495059063 -4.08580244594388 -6.445845463803755 0 0 0
1045 205 1 -1.1128 -10.841058788253852 -3.9689675331129277 -6.591220692265274 0 0 0
1154 241 2 0.5564 -7.423067475987168 -3.3385300492164616 -6.4713059830603195 0 0 0
1155 241 2 0.5564 -6.557441355397 -4.1476430051838 -5.529009395375772 0 0 0
1216 262 1 -1.1128 -10.138571465891134 -2.283239529247483 -3.8384198975324884 0 0 0
1047 205 2 0.5564 -10.300732975581074 -3.1861587639181272 -6.698413415248701 0 0 0
1217 262 2 0.5564 -9.75078224966482 -2.129586373870579 -2.9768849215863113 0 0 0
1046 205 2 0.5564 -10.234635718543416 -4.698477228596615 -6.718886285856794 0 0 0
291 0 5 0 -8.960203741236832 -3.931855744042815 -8.970930599030703 0 0 0
1218 262 2 0.5564 -10.193662144883138 -3.236145309473967 -3.9103090044692563 0 0 0
100 0 5 0 -6.824773978627724 -5.833721788224503 -9.059154396690534 0 0 0
99 0 5 0 -8.746414630607637 -7.926499444133395 -8.9604264079802 0 0 0
88 0 5 0 -6.873539287852967 -10.0953243623025 -9.02486774570129 0 0 0
98 0 5 0 -10.816442002568417 -6.059755423667956 -8.939452736754003 0 0 0
782 117 2 0.5564 5.695476199968413 -8.177769696556119 -0.5104980126297001 0 0 0
55 0 5 0 -6.815094895328672 -8.011941861517839 -10.95591418110681 0 0 0
1137 235 2 0.5564 -3.185895538833571 -0.02784611899588233 -1.290410709384136 0 0 0
733 101 1 -1.1128 -6.269388592552078 -7.081129474313785 -3.721726014530755 0 0 0
734 101 2 0.5564 -6.198821398298551 -6.13977105252388 -3.563307582744069 0 0 0
735 101 2 0.5564 -7.158417958871538 -7.202405065266082 -4.0551188432204635 0 0 0
31 0 5 0 -6.911607646241561 -12.07236559283837 -10.986872086938705 0 0 0
56 0 5 0 -8.895874722873536 -5.9803818820610175 -10.979536090414143 0 0 0
25 0 5 0 11.321352056935003 -12.075948202210133 -13.102397239012507 -1 0 0
219 0 5 0 -10.876161325660943 -3.910455197887422 -10.970347154103225 0 0 0
483 17 2 0.5564 -5.582882475862788 -10.732623431832682 -6.573071964645365 0 0 0
223 0 5 0 -6.866590151016865 -3.8905233113828084 -10.925631625434324 0 0 0
32 0 5 0 -8.802138715605313 -9.986959477637614 -11.056155841907557 0 0 0
51 0 5 0 -10.859488355411083 -7.941695590161852 -11.088002622096639 0 0 0
30 0 5 0 -6.732066269780917 -10.02538813866151 -13.037438830439784 0 0 0
222 0 5 0 -6.808220005270603 -1.926380862077397 -12.914757933870288 0 0 0
218 0 5 0 -10.785944321873236 -1.8387421486032618 -12.954769265653303 0 0 0
1482 0 4 -1.1 -6.253824428541244 -4.218730686611441 -3.4057658767370884 0 0 0
292 0 5 0 -6.835271609387977 -1.9487298550736292 -8.929026036388091 0 0 0
221 0 5 0 -8.85755386791585 -3.9331513811568297 -12.884558641322851 0 0 0
224 0 5 0 -8.848110648592007 -1.8544761409843462 -10.925176904935721 0 0 0
290 0 5 0 -10.956683577513239 -1.941010242638072 -8.941841905218295 0 0 0
50 0 5 0 -10.910510171458858 -5.897870719757837 -13.12470858029896 0 0 0
549 39 2 0.5564 -5.621906553558522 -5.490548151064646 -6.752920807724758 0 0 0
54 0 5 0 -6.84002512510137 -5.999535220305826 -12.924171987653331 0 0 0
53 0 5 0 -8.82727941044596 -7.945817433315425 -13.046730692453854 0 0 0
1464 0 3 1.1 -6.476296504775701 -11.373175192892795 -3.379462931093695 0 0 0
26 0 5 0 -10.852220338521295 -9.941259783961831 -13.070344044052833 0 0 0
33 0 5 0 -4.869057072302165 -12.082901835007874 -12.99781266879671 0 0 0
36 0 5 0 -4.78321646164436 -10.076781606273963 -10.985677505716533 0 0 0
89 0 5 0 -4.849459754370507 -12.075393932380894 -9.024814032362244 0 0 0
481 17 1 -1.1128 -4.9918197106464826 -10.030077591909789 -6.843822858047506 0 0 0
547 39 1 -1.1128 -4.813385369306815 -5.9900146820801705 -6.638647176210383 0 0 0
101 0 5 0 -4.809596340622168 -7.970767604537259 -8.948590107874779 0 0 0
60 0 5 0 -4.781955004501852 -5.929631390958044 -10.986512638233428 0 0 0
225 0 5 0 -4.837355313470186 -3.8550032980404563 -12.928877529263898 0 0 0
57 0 5 0 -4.719316521611616 -8.012320024299383 -13.015746544590279 0 0 0
1048 206 1 -1.1128 -8.971990387508892 -2.063748141183938 -6.483862208788619 0 0 0
678 82 2 0.5564 -5.173056311995097 -8.62161762592758 -1.123900911406892 0 0 0
1244 271 2 0.5564 -5.564119090337644 -8.750191544667738 -3.9478126956973645 0 0 0
1053 207 2 0.5564 -9.380664983770915 -5.382137872151638 -4.975514956855438 0 0 0
1051 207 1 -1.1128 -9.387876844207804 -5.1957955242995935 -4.036655308172325 0 0 0
1052 207 2 0.5564 -8.463499493071147 -5.120488334089065 -3.799826469860402 0 0 0
963 177 2 0.5564 -12.06729929985753 -6.527248780944189 -6.480775634996558 0 0 0
1245 271 2 0.5564 -4.868320683826795 -9.59413990737944 -4.994479266096018 0 0 0
662 77 2 0.5564 -8.834616711323816 -10.705930734540917 -4.554509156061662 1 0 0
983 184 2 0.5564 12.059131426525441 -1.7445467276023379 -6.875820455297828 -1 0 0
965 178 2 0.5564 -4.481802170714801 -2.2342383244412662 -5.603452814541902 0 0 0
964 178 1 -1.1128 -4.542298033497987 -1.9089566702288356 -6.501653475263437 0 0 0
1042 204 1 -1.1128 -11.359537550820514 -8.890471833833805 -3.357068750166307 0 0 0
1043 204 2 0.5564 -10.514276893195268 -8.497378028735254 -3.139712964565172 0 0 0
580 50 1 -1.1128 -11.99900674898102 -11.520370796594948 -4.1948372739798 0 0 0
1481 0 4 -1.1 -8.5537672389424 -8.304791095179443 -0.2770733349725946 0 0 0
228 0 5 0 -4.821516906187806 -1.9124945682556809 -10.857975044029141 0 0 0
293 0 5 0 -4.703239928105401 -3.887373672498726 -8.902909064957838 0 0 0
1050 206 2 0.5564 -9.060465123638297 -2.2158132907311536 -5.542968915000861 0 0 0
1049 206 2 0.5564 -9.588602409369567 -1.3560985689180198 -6.671621472900067 0 0 0
684 84 2 0.5564 -10.745546904651697 -7.925093990366913 -0.47949202927258594 1 0 0
682 84 1 -1.1128 -11.44946369658015 -7.339093873621348 -0.7575897549567898 1 0 0
834 134 2 0.5564 -6.781498093840745 -4.587040017776905 -1.3682866397765503 0 0 0
1317 295 2 0.5564 -7.828907785305709 -1.4104434737207812 -2.59520106133692 0 0 0
876 148 2 0.5564 11.289895740906198 -2.0155357460743413 -3.0793224846881126 -1 0 0
661 77 1 -1.1128 -8.713410259593765 -10.641249545913 -3.6072194622751352 1 0 0
1316 295 2 0.5564 -6.7209636710321545 -2.293752079186843 -3.128230901180079 0 0 0
582 50 2 0.5564 -11.706134811531 -10.720125038747053 -3.7588714855426004 0 0 0
1315 295 1 -1.1128 -7.0715834678578995 -1.4046187212488632 -3.1805707843876068 0 0 0
676 82 1 -1.1128 -5.108310408110469 -7.678004184862133 -0.9768165795535079 0 0 0
1243 271 1 -1.1128 -5.0011906717069925 -9.517638631429802 -4.049638082820165 0 0 0
677 82 2 0.5564 -4.931500342455072 -7.311636257350529 -1.843272327673739 0 0 0
832 134 1 -1.1128 -7.170772772947696 -4.746223588222806 -0.5084275391413583 0 0 0
1061 210 2 0.5564 12.0922997605483 -4.820365759415576 -2.3105965351744477 0 0 0
1229 266 2 0.5564 9.31967498664891 -8.447593236483632 -0.596380186662501 0 0 0
1107 225 2 0.5564 -9.515786921135527 -1.8247228914071243 -0.7212323631613543 0 0 0
683 84 2 0.5564 -11.968717283535634 -7.861098934483159 -1.3692420338614295 1 0 0
1105 225 1 -1.1128 -9.16345518032636 -1.1636919153037668 -1.3171633965148055 0 0 0
1106 225 2 0.5564 -9.656790297410375 -0.36921763366041505 -1.1130473600123212 0 0 0
1235 268 2 0.5564 11.352256960765706 -1.684274805920729 -0.5929267620630885 -1 0 0
797 122 2 0.5564 -4.1614482035977804 -5.290756588656604 -2.9734896777399444 0 0 0
941 170 2 0.5564 -4.444623596988445 -3.1877001864315586 -3.667725143264895 0 0 0
1071 213 2 0.5564 -10.491648979691364 -3.9156076733721332 -0.466056127803433 0 0 0
602 57 2 0.5564 2.4768259040882077 -12.065916824684525 -3.3420638178592235 -1 0 0
663 77 2 0.5564 -8.938044978720095 -9.734634484875105 -3.3978840856736636 1 0 0
1136 235 2 0.5564 -4.116965468575882 -0.43217525347073976 -2.413585570289573 0 0 0
1062 210 2 0.5564 -11.552396494891367 -5.595769286673747 -1.1546303509360536 1 0 0
817 129 1 -1.1128 -3.143487832041457 -10.385246717930665 -1.7635645422877233 0 0 0
900 156 2 0.5564 -6.156712631428825 -0.7359243809175836 -6.484988499939526 0 0 0
1015 195 1 -1.1128 5.188291825986359 -0.05194666689769059 -6.625770470670006 0 0 0
1060 210 1 -1.1128 -11.763312552555895 -4.7071948458758195 -1.4413035927331415 1 0 0
1163 244 2 0.5564 -2.1414018678474487 -7.091016925691077 -0.30253469387508364 0 0 0
548 39 2 0.5564 -4.144721458226895 -5.327643207225681 -6.464335936859527 0 0 0
491 20 2 0.5564 3.715842305225576 -2.417707750599237 -6.10034124991568 0 0 0
1068 212 2 0.5564 -11.315503839031503 -0.2985508570805529 -2.5738819244069946 0 0 0
1036 202 1 -1.1128 2.273370182456226 -2.3185605050781217 -1.139061556347967 0 0 0
819 129 2 0.5564 -3.9564891601136076 -10.816267313650686 -2.0271591062980563 0 0 0
1038 202 2 0.5564 2.192643429759185 -3.2248816699673046 -1.4362102661130645 0 0 0
1014 194 2 0.5564 -0.39778454604096075 -1.0598619001275749 -3.250062266919093 0 0 0
239 0 5 0 9.331147746088888 -3.918481957069199 -11.104765726272094 0 0 0
1135 235 1 -1.1128 -3.635299659552225 -0.7851873829345359 -1.6655131690104477 0 0 0
796 122 1 -1.1128 -3.489971715762658 -5.846542105184646 -2.5779471009411705 0 0 0
798 122 2 0.5564 -3.040813055670105 -6.246983185359239 -3.322349816811831 0 0 0
1283 284 2 0.5564 -3.3077111080434487 -1.8420386753347033 -0.17995501273948364 0 0 0
790 120 1 -1.1128 -1.4411653639343562 -4.369685371103479 -0.031760414550920546 0 0 0
541 37 1 -1.1128 -10.701979045208542 -11.868091975968229 -6.574583400346085 0 0 0
948 172 2 0.5564 -0.6664055455058662 -2.480269035129881 -4.917879495411552 0 0 0
791 120 2 0.5564 -2.0986921706412973 -5.015552982105002 -0.2901132614170855 0 0 0
966 178 2 0.5564 -4.00264371111168 -1.1184044727612328 -6.507454008557978 0 0 0
887 152 2 0.5564 0.07938384345569474 -1.0235533383551763 -6.14474129033111 0 0 0
1198 256 1 -1.1128 2.0594179603824605 -1.0816218475118804 -3.829334756281633 0 0 0
942 170 2 0.5564 -3.4476112580346134 -2.262446334491455 -3.003069821718936 0 0 0
1332 300 2 0.5564 2.3408169940235792 -7.373749901709895 -5.187952252490155 0 0 0
482 17 2 0.5564 -4.240013718331362 -10.482864784801528 -7.225926676789652 0 0 0
940 170 1 -1.1128 -3.5907141083139478 -2.7754104812655984 -3.798444656445708 0 0 0
554 41 2 0.5564 -1.2894074875294446 -9.860295348710773 -3.4306616008256894 0 0 0
62 0 5 0 1.1494075602232061 -5.89842565850921 -13.06400127522387 0 0 0
1178 249 2 0.5564 1.014926951389056 -7.137776121213252 -3.7452593377982915 0 0 0
1330 300 1 -1.1128 2.691837324361289 -7.612966048374601 -4.330168304700476 0 0 0
294 0 5 0 -2.733621335219525 -1.9671639891629669 -9.023141256401956 0 0 0
39 0 5 0 1.2715934214650086 -12.029743592140962 -11.055102660999202 0 0 0
64 0 5 0 -0.8112831890819543 -6.011194806653048 -10.96246567708192 0 0 0
59 0 5 0 -2.8340087277389876 -8.01156861049939 -10.930131858852704 0 0 0
232 0 5 0 -0.7386977096057814 -1.9160225338294676 -10.915741062604537 0 0 0
91 0 5 0 -0.7117567020091276 -12.040018290054942 -8.931122516916266 0 0 0
1037 202 2 0.5564 2.236347124431236 -1.7985935773140025 -1.9418665246928613 0 0 0
885 151 2 0.5564 -2.6296368813427073 -3.781335785957705 -5.491208616965457 0 0 0
889 153 1 -1.1128 1.3174677810194544 -4.064696303863047 -6.537031920355277 0 0 0
883 151 1 -1.1128 -2.8990063110823043 -4.2241235068410665 -6.295951565658499 0 0 0
884 151 2 0.5564 -3.153217664282883 -3.514990278350835 -6.886493005063631 0 0 0
1058 209 2 0.5564 0.5797358180497426 -8.875721541613744 -6.686409281019037 0 0 0
530 33 2 0.5564 -0.6087397332367686 -10.338476955357091 -5.615017704575131 0 0 0
969 179 2 0.5564 -3.628482270555551 -7.485748597455265 -6.609964461259909 0 0 0
531 33 2 0.5564 -1.3609591470559628 -10.582209973091805 -6.90600765671178 0 0 0
551 40 2 0.5564 -0.4358130981022005 -6.242546625241598 -5.6237175952711675 0 0 0
968 179 2 0.5564 -2.1155603135185856 -7.483820463882997 -6.664365741346448 0 0 0
967 179 1 -1.1128 -2.868441363192513 -8.065308422931658 -6.558187421455949 0 0 0
978 182 2 0.5564 4.6794092833385665 -2.2602881931646293 -1.1212699544105507 0 0 0
1075 215 1 -1.1128 -2.527632473305371 -8.294744585741835 -3.799778799849208 0 0 0
899 156 2 0.5564 -7.589152450844953 -0.47628002338615893 -6.900435279379294 0 0 0
529 33 1 -1.1128 -0.5454549206061431 -10.217345770296157 -6.562411001574948 0 0 0
550 40 1 -1.1128 -0.6549797825340145 -6.093349356683285 -6.543466171552051 0 0 0
1059 209 2 0.5564 0.7319512164553627 -7.420987828382164 -7.07689029388195 0 0 0
1057 209 1 -1.1128 1.1788267458205173 -8.132318723329035 -6.618041365254389 0 0 0
1076 215 2 0.5564 -2.679922001587902 -8.270803273032014 -4.744483176107145 0 0 0
85 0 5 0 11.420317743033628 -12.073783911740621 -9.098123303559067 -1 0 0
1077 215 2 0.5564 -3.2584542529672147 -8.805635855585598 -3.451753866524533 0 0 0
890 153 2 0.5564 1.7307143728882812 -4.176567277016055 -5.680910476087984 0 0 0
552 40 2 0.5564 -1.4677314686454312 -5.58837465245933 -6.517640370768527 0 0 0
295 0 5 0 -0.733495133340222 -3.958589690725869 -8.930874648144178 0 0 0
891 153 2 0.5564 0.5236789273998782 -4.5976962356943805 -6.491842507068231 0 0 0
1392 320 2 0.5564 1.3041846605773602 -5.69655581685043 -1.2063219182619165 0 0 0
102 0 5 0 -2.8006143974759614 -6.020220555931554 -8.924930402981436 0 0 0
104 0 5 0 1.2972327135619086 -6.0437462328568765 -8.990195902997579 0 0 0
103 0 5 0 -0.7334376274802412 -8.105076775020008 -9.019264152829562 0 0 0
90 0 5 0 -2.8168747106570806 -9.975005751527233 -8.96390106970799 0 0 0
92 0 5 0 1.2918344489838574 -10.078166063121598 -9.110504388726383 0 0 0
63 0 5 0 1.323097370322901 -7.958438361362444 -11.071090416041306 0 0 0
34 0 5 0 -2.748994126822739 -10.070287439533802 -13.027294154141345 0 0 0
227 0 5 0 -2.7487681886107267 -3.9574580755461706 -10.980986076225992 0 0 0
553 41 1 -1.1128 -0.6507196667160218 -10.543223228694176 -3.635405656838452 0 0 0
231 0 5 0 1.224701297650875 -3.988398184762877 -10.934241516001343 0 0 0
1179 249 2 0.5564 -0.29453885697002097 -7.312603351231634 -3.005914555514529 0 0 0
40 0 5 0 -0.7855982352432559 -10.115404677975445 -10.99336179821555 0 0 0
35 0 5 0 -2.7654670318145103 -12.067730503902919 -10.987947011039367 0 0 0
1177 249 1 -1.1128 0.10347400587878577 -6.845435463267285 -3.7404702186028804 0 0 0
296 0 5 0 1.2690547128723164 -1.9703162302500898 -8.873671499839585 0 0 0
886 152 1 -1.1128 -0.50569573446485 -1.7312072123229443 -6.415186774221381 0 0 0
888 152 2 0.5564 0.06937660344041975 -2.4879582583908753 -6.528556530706969 0 0 0
473 14 2 0.5564 2.7014143811171807 -9.256734870685191 -6.696500604106865 0 0 0
492 20 2 0.5564 2.466393166286382 -2.5802296775453106 -6.9396016728044705 0 0 0
38 0 5 0 1.3308896757537336 -9.94131587849622 -13.084833167481479 0 0 0
972 180 2 0.5564 4.472146101659124 -8.562375862950697 -2.503816903665703 0 0 0
58 0 5 0 -2.7608495667896635 -5.919347570913628 -13.008575268079925 0 0 0
230 0 5 0 1.3081128998576168 -1.9704969009410875 -12.966405318270768 0 0 0
1160 243 2 0.5564 5.325210987484983 -11.774122723216813 -4.666889165250941 0 0 0
61 0 5 0 -0.7060547883953924 -7.970086932472938 -12.979098931100252 0 0 0
226 0 5 0 -2.7846645695327212 -1.9140638088421615 -12.960812847474031 0 0 0
229 0 5 0 -0.7966444085961204 -3.8477449705495586 -12.976358864060328 0 0 0
1116 228 2 0.5564 2.910981713711851 -3.7891011691102996 -4.340273700355546 0 0 0
555 41 2 0.5564 -1.1293617817234252 -11.363353730146805 -3.5149042872467664 0 0 0
65 0 5 0 3.2705841603861736 -7.905464805137197 -13.087013088733269 0 0 0
297 0 5 0 3.3036952193134312 -3.9053714524020657 -8.851795723439848 0 0 0
233 0 5 0 3.2183524166243953 -3.9914200033362173 -13.060179342104336 0 0 0
93 0 5 0 3.2711725314902242 -12.071262811103871 -9.045355236766213 0 0 0
236 0 5 0 3.1783655089714844 -1.9345823590537856 -10.909911483736519 0 0 0
44 0 5 0 3.348296287325523 -10.020208594681124 -11.117220404516514 0 0 0
68 0 5 0 3.2265384520362823 -5.893587122440889 -10.990230808927363 0 0 0
1114 228 1 -1.1128 2.114267097621697 -4.1691769254185855 -3.970110355035973 0 0 0
472 14 1 -1.1128 3.2673418718763854 -10.002596946474876 -6.4973836867788215 0 0 0
474 14 2 0.5564 2.777659219907971 -10.50915499107737 -5.849431769580336 0 0 0
105 0 5 0 3.1979341984846834 -8.083515199024895 -8.94479752097395 0 0 0
1308 292 2 0.5564 3.058205353958704 -12.025043070982466 -0.8738109311489659 0 0 0
1115 228 2 0.5564 1.5514000695510184 -3.4166115772514436 -3.7882894319381824 0 0 0
488 19 2 0.5564 2.808618707281784 -5.450918101798428 -6.887546234534055 0 0 0
490 20 1 -1.1128 2.990363158207884 -1.9230991947426952 -6.481489549555766 0 0 0
1199 256 2 0.5564 2.0293991617218143 -0.9601549108568925 -4.778322016555894 0 0 0
946 172 1 -1.1128 -0.46859998849512635 -2.905021132902696 -4.083198671072841 0 0 0
29 0 5 0 -8.793413501822572 -12.008305624530148 -13.017219933940954 0 0 0
48 0 5 0 7.3802597463531665 -10.057000422749004 -11.085782689531491 0 0 0
947 172 2 0.5564 -1.2978333757208946 -3.298634371494557 -3.8117718527093567 0 0 0
903 157 2 0.5564 -2.0765166431634037 -0.4559919403446267 -6.537362233499308 0 0 0
1292 287 2 0.5564 2.1728120251290814 -9.532115216604657 -4.303631811539335 0 1 0
1390 320 1 -1.1128 2.126450900529319 -5.226172640002963 -1.3436173647968035 0 0 0
1331 300 2 0.5564 3.4418699591536006 -7.031139986300743 -4.207036178073328 0 0 0
908 159 2 0.5564 1.9663825626342832 -0.41230246859477515 -6.8750861692881315 0 0 0
1291 287 1 -1.1128 1.9534144424837774 -10.439295134331747 -4.091214583310078 0 1 0
466 12 1 -1.1128 5.2750248047393775 -8.091734962726571 -6.835150630974687 0 0 0
898 156 1 -1.1128 -6.771667104591429 -0.029150929028025418 -6.681289586989448 0 0 0
1070 213 2 0.5564 -8.985109888086876 -4.064725408358775 -0.4659593377662787 0 0 0
1391 320 2 0.5564 2.182259854090107 -5.112298555385504 -2.292380374698534 0 0 0
487 19 1 -1.1128 3.6088548258623687 -5.898546986728243 -6.612805936303054 0 0 0
489 19 2 0.5564 4.172356998913443 -5.2000471828611525 -6.279947120673925 0 0 0
45 0 5 0 7.311603765989632 -12.106851099292202 -12.989526779949086 0 0 0
1293 287 2 0.5564 1.0736030175167353 -10.39214349394041 -3.717128508117991 0 1 0
962 177 2 0.5564 11.937391137406502 -5.032935121476265 -6.540367916469238 -1 0 0
96 0 5 0 9.308173562375071 -10.082052912043215 -9.04750558663914 0 0 0
557 42 2 0.5564 9.760211655950558 -0.6700591711889055 -6.877059060632692 0 0 0
477 15 2 0.5564 7.478573042626226 -9.966445347791884 -5.392729765272316 -1 0 0
1146 238 2 0.5564 9.838045488032453 -8.123207419442505 -2.4921384552216046 0 0 0
108 0 5 0 9.257015916395845 -6.016586786822342 -9.09052173612828 0 0 0
715 95 1 -1.1128 -0.8580015375549358 -8.135065528509122 -1.1211274930311266 0 0 0
463 11 1 -1.1128 5.219320064836987 -11.954873997277607 -6.44269541961118 0 0 0
464 11 2 0.5564 4.586639143171826 -11.236580344350255 -6.4436509343429105 0 0 0
1044 204 2 0.5564 -11.626617660637754 -8.453429732929461 -4.165706017594949 0 0 0
457 9 1 -1.1128 10.918543730147496 -10.08894537787088 -6.530285382791587 -1 0 0
961 177 1 -1.1128 11.476854108372898 -5.869959411868843 -6.480972486666434 -1 0 0
476 15 2 0.5564 6.549972535179899 -9.209177675742085 -6.3180091387527195 -1 0 0
1234 268 1 -1.1128 11.967467816859658 -1.9070709729252242 -1.2915752005986645 -1 0 0
1144 238 1 -1.1128 9.89133702191717 -8.38885791505666 -3.4101927067493847 0 0 0
435 1 2 0.5564 8.448338274388941 -8.577619314121318 -6.46810801965686 -1 0 0
446 5 2 0.5564 0.6342303815400425 -11.445032275770638 -6.315970768228675 0 0 0
618 62 2 0.5564 5.144557559124123 -1.8115418561761594 -4.101431495010403 0 0 0
1056 208 2 0.5564 5.602076599684926 -6.492905574877153 -3.5503232354031353 0 0 0
971 180 2 0.5564 5.095051534312369 -9.818083056397677 -1.9319048986251133 0 0 0
970 180 1 -1.1128 4.666172829911046 -9.00157726576764 -1.6757542750779926 0 0 0
1142 237 2 0.5564 9.522874691194495 -11.777616477182807 -4.974683365974897 0 0 0
1161 243 2 0.5564 5.874384555666778 -11.026848154400206 -3.4702751480262437 0 0 0
982 184 1 -1.1128 11.172621755830933 -1.8778751023360694 -6.540327078758493 -1 0 0
465 11 2 0.5564 6.038145817057211 -11.553838667915802 -6.734117066190318 0 0 0
874 148 1 -1.1128 10.712439580080828 -2.2749166271318204 -3.797304998305164 -1 0 0
875 148 2 0.5564 10.931482221950828 -3.1920292636023917 -3.9621019003538387 -1 0 0
468 12 2 0.5564 4.583409401757932 -8.741494779309617 -6.70979833846716 0 0 0
984 184 2 0.5564 11.264420770558637 -1.8183674306399784 -5.5893984874220255 -1 0 0
581 50 2 0.5564 11.312754752282132 -11.370181946240498 -4.373861235171825 -1 0 0
1133 234 2 0.5564 9.141928908778146 -1.8519691499310338 -2.9071153046867675 -1 0 0
28 0 5 0 11.304049087297841 -10.046627606322222 -11.061432993440043 -1 0 0
433 1 1 -1.1128 9.056199961243193 -7.872341299244381 -6.246029284450982 -1 0 0
1183 251 1 -1.1128 7.212063759745403 -9.414103036866694 -3.495494534804172 0 0 0
742 104 1 -1.1128 -0.5778950838025266 -0.7274723202669682 -0.06225412480025082 0 0 0
1164 244 2 0.5564 -3.6162811373506685 -6.829705326784232 -0.52240370325291 0 0 0
527 32 2 0.5564 -2.563772567382898 -12.05268985573483 -5.456919303763368 0 0 0
95 0 5 0 7.330291358903366 -12.073088607152005 -9.023583269617609 0 0 0
97 0 5 0 11.280025702149997 -8.024798898937222 -8.9744027941525 -1 0 0
716 95 2 0.5564 -0.2990889756202738 -8.582999842322584 -0.4861435004601421 0 0 0
1228 266 1 -1.1128 9.151643777758528 -7.62076821875236 -1.0484412466726947 0 0 0
494 21 2 0.5564 9.870003544926753 -4.806865275761538 -7.006626286473921 0 0 0
49 0 5 0 11.296084302660285 -8.057256222258223 -13.091946135832577 -1 0 0
1132 234 1 -1.1128 8.275740250790278 -2.085416668951265 -2.5732720262469018 -1 0 0
809 126 2 0.5564 -10.197339784727122 -12.018328039833026 -0.1829618808352537 1 0 0
220 0 5 0 11.331256646820183 -1.9610749710128799 -11.006938706552438 -1 0 0
237 0 5 0 7.299305198285281 -3.874806009744723 -13.053543644924408 0 0 0
995 188 2 0.5564 11.116047528178898 -5.311603278142699 -4.749508273132344 0 0 0
70 0 5 0 9.321167369907641 -5.95402897520217 -13.071907672195387 0 0 0
1289 286 2 0.5564 5.650300869805442 -4.298080358286713 -1.7979766045892502 0 0 0
996 188 2 0.5564 10.23218327841167 -5.131846688004611 -3.5336269050347706 0 0 0
217 0 5 0 11.43793221894117 -3.8804770594208993 -12.965033225794862 -1 0 0
52 0 5 0 11.309323581425286 -6.035090798669945 -11.059559716097382 -1 0 0
69 0 5 0 7.246696849438037 -8.00774201368554 -13.06582249880562 0 0 0
94 0 5 0 5.28516664321039 -10.036608588760604 -9.079637819775241 0 0 0
1055 208 2 0.5564 5.852636498597336 -6.806321342386646 -5.010078872975308 0 0 0
1069 213 1 -1.1128 -9.697299560184607 -3.5748696918550866 -0.054789984403550956 0 0 0
46 0 5 0 9.357270508769304 -10.123930439127474 -13.165259604976226 0 0 0
1134 234 2 0.5564 8.452784404933357 -2.603772780436505 -1.7882916579914627 -1 0 0
495 21 2 0.5564 10.166026768384786 -3.3386984778988147 -6.785825025113013 0 0 0
1477 0 4 -1.1 5.098167103632944 -3.718426737589292 -5.258633186263094 0 0 0
1185 251 2 0.5564 8.08008165805224 -9.050491565594605 -3.3206708150400224 0 0 0
300 0 5 0 9.359859857086498 -1.9454872433493324 -9.071645175942763 0 0 0
299 0 5 0 7.3773910151841795 -3.9618444099979704 -9.052082726190964 0 0 0
818 129 2 0.5564 -2.71504809646828 -11.014976236096892 -1.1838120970027168 0 0 0
458 9 2 0.5564 10.42235090524269 -10.82768675281074 -6.882827738577044 -1 0 0
1120 230 1 -1.1128 9.23201569027795 -3.703086537861353 -0.5784499850869746 0 0 0
107 0 5 0 7.232836027571741 -7.9888544458041055 -9.15532042813268 0 0 0
994 188 1 -1.1128 11.131432092635773 -5.014212862448838 -3.8398074830009072 0 0 0
434 1 2 0.5564 9.262998416186687 -8.015671024060318 -5.322491072901149 -1 0 0
1054 208 1 -1.1128 5.693210433801201 -7.222643508956047 -4.163030344275734 0 0 0
1117 229 1 -1.1128 8.254861444361474 -4.493800942484188 -3.797116374741709 0 0 0
42 0 5 0 5.336691232653394 -10.052731743537931 -13.069812658187555 0 0 0
467 12 2 0.5564 4.837033016108867 -7.249002809217192 -6.715992410077142 0 0 0
493 21 1 -1.1128 9.47910983304757 -3.9967484489677476 -6.679295838615722 0 0 0
915 161 2 0.5564 6.435306858125679 -1.222563415362541 -6.542110108861763 0 0 0
1184 251 2 0.5564 6.728738807043658 -8.69578831599613 -3.903725858805631 0 0 0
234 0 5 0 5.2893088750094215 -1.9373886609746052 -12.967137534377125 0 0 0
475 15 1 -1.1128 7.256097132306862 -9.855412112988343 -6.317071614948905 -1 0 0
1145 238 2 0.5564 10.430961949639748 -9.179389159872503 -3.4003385346913926 0 0 0
71 0 5 0 9.243551661568855 -7.974726328054708 -11.124466722730743 0 0 0
298 0 5 0 5.384391998518881 -1.9465469187711708 -8.919688222036566 0 0 0
1290 286 2 0.5564 5.268510503533914 -4.448040293933738 -3.25524912406439 0 0 0
106 0 5 0 5.307729574067843 -6.021781084463115 -9.067178577992669 0 0 0
470 13 2 0.5564 7.839492549847917 -6.7661072725602125 -6.71849779956975 0 0 0
289 0 5 0 11.285454532430794 -4.096841644968187 -9.112100934168474 -1 0 0
459 9 2 0.5564 10.430752685173527 -9.315418818806654 -6.813037992680681 -1 0 0
1288 286 1 -1.1128 5.495846545229806 -4.955631966946455 -2.4762107041091306 0 0 0
238 0 5 0 9.302405823420758 -1.9033800248571604 -13.033425779432914 0 0 0
66 0 5 0 5.305438482999251 -5.859131544388072 -13.231576480690943 0 0 0
471 13 2 0.5564 6.939837525799139 -6.1209841421798385 -7.751131293893375 0 0 0
914 161 2 0.5564 7.918241839261115 -1.0709008153240398 -6.806301832022694 0 0 0
240 0 5 0 7.3674518746811355 -1.9271694677473523 -11.011216284582682 0 0 0
1230 266 2 0.5564 9.021552880705 -6.984777763656033 -0.3450036938247888 0 0 0
43 0 5 0 5.319949056726872 -12.067549989452928 -11.017122119537548 0 0 0
1462 0 3 1.1 7.39600262418269 -4.072742060075511 -5.865982916795221 0 0 0
526 32 1 -1.1128 -2.797407203271942 -11.957818306711223 -6.380307686943807 0 0 0
616 62 1 -1.1128 4.961069306650848 -0.8856120287561924 -3.942630558667113 0 0 0
617 62 2 0.5564 4.012128729381101 -0.8459858720838157 -3.823579463104156 0 0 0
810 126 2 0.5564 -9.49288973708496 -10.679159118724955 -0.23064075747456142 1 0 0
72 0 5 0 7.188470748112838 -5.9288325524446766 -11.132034284528146 0 0 0
469 13 1 -1.1128 7.19570166169838 -6.066642457334881 -6.83036406143291 0 0 0
1118 229 2 0.5564 7.550786391353069 -4.845505255462144 -3.2523097867960478 0 0 0
913 161 1 -1.1128 7.256081319386196 -1.7148940642325268 -6.555208447618903 0 0 0
976 182 1 -1.1128 5.629204321341157 -2.379112758214819 -1.1197413419698838 0 0 0
1119 229 2 0.5564 8.316354749934254 -3.5725646550250945 -3.5445810427418514 0 0 0
67 0 5 0 5.230404820646059 -7.930584021486518 -11.11261294631498 0 0 0
235 0 5 0 5.261037086506552 -3.94761224321011 -10.985851451496394 0 0 0
37 0 5 0 -0.7238030261435808 -12.095441184518007 -12.9994160191913 0 0 0
1013 194 2 0.5564 -0.49125721815186885 -0.2406254635217576 -1.98041251691828 0 0 0
1236 268 2 0.5564 12.028132801336692 -2.861903253601203 -1.262462931411826 -1 0 0
717 95 2 0.5564 -1.4134485449567642 -8.826280130980525 -1.4815899106081802 0 0 0
1141 237 1 -1.1128 9.556787190663108 -11.524570479356655 -4.052159936264913 0 0 0
1159 243 1 -1.1128 5.25614780669411 -11.715781851576438 -3.713967517513757 0 0 0
1067 212 2 0.5564 -11.025117003064343 -0.6409101992347191 -4.019690059919853 0 0 0
1143 237 2 0.5564 8.90982262416656 -12.086232900995652 -3.6253063782053796 0 0 0
1478 0 4 -1.1 -6.650791532699926 -12.075654325678991 -5.784592743194085 0 0 0
1012 194 1 -1.1128 -0.2736083879248681 -0.17371133480483159 -2.9101352998872843 0 0 0
1017 195 2 0.5564 5.023552562253435 -0.39082494287886427 -5.745853271482978 0 0 0
1468 0 3 1.1 6.649054700814387 -0.553918808472398 -1.9905201290236054 0 0 0
1200 256 2 0.5564 1.4648824623373122 -0.41603841514809514 -3.483271979776108 0 0 0
1306 292 1 -1.1128 3.7499878155507105 -11.803501135547753 -0.2504422626923099 0 0 0
27 0 5 0 -10.840785363082679 -12.078291250131043 -11.124135539280456 0 0 0
848 139 2 0.5564 10.315209214605346 -11.95949991083796 -0.7463523755451456 0 0 0
447 5 2 0.5564 1.7534475005149601 -11.897296688020749 -7.229592459970414 0 0 0
977 182 2 0.5564 5.8160997515228035 -2.807696954987604 -0.2845060695016312 0 0 0