LAMMPS data file via write_data, version 29 Sep 2021, timestep = 100000

490 atoms
7 atom types
80 bonds
5 bond types
130 angles
6 angle types
120 dihedrals
3 dihedral types

-13.809793888004586 13.809793888004586 xlo xhi
-13.794338256894571 13.794338256894571 ylo yhi
-25.68 25.68 zlo zhi

Masses

1 22.99
2 35.45
3 12.011
4 1.008
5 1.008
6 12.011
7 15.9994

Pair Coeffs # lj/cut/coul/long

1 0.0552 2.31
2 0.1004 4.3
3 0.0663 3.5812
4 0.0281 2.3734
5 0 0
6 0.245 2.8114
7 0.1195 3.1

Bond Coeffs # harmonic

1 349.274 1.09
2 399.792 1.43
3 299.844 1.52
4 349.928 1.1
5 442.161 0.972

Angle Coeffs # harmonic

1 47.694 109.5
2 55.127 109.5
3 55.114 111
4 52.477 107.57
5 47.502 108.53
6 54.993 110.3

Dihedral Coeffs # harmonic

1 0.30115 1 3
2 1.415 1 3
3 0 1 1

Atoms # full

9 1 1 1 -12.565398163992436 -12.385474211097334 -24.253220154913155 0 0 1
10 1 2 -1 -12.47681363862262 -9.60364582835533 -24.146066097496995 0 0 1
11 1 2 -1 -9.784766621350007 -12.50952092671981 -24.381431748623637 0 0 1
12 1 1 1 -9.684643500635676 -9.491567098082108 -24.247798431121954 0 0 1
13 1 2 -1 -12.368900530545167 -12.31773369022428 -21.273973693670932 0 0 1
14 1 1 1 -12.621529305461616 -9.558453205300932 -21.3410254951956 0 0 1
15 1 1 1 -9.553774652762495 -12.33581400431719 -21.644515310556514 0 0 1
16 1 2 -1 -9.708789770395265 -9.578946993181445 -21.365594528297645 0 0 1
25 1 1 1 -12.512478149387587 -6.814838001793762 -24.070359971132323 0 0 1
89 1 1 1 -6.975314203901164 -12.437542171352398 -24.350349225287804 0 0 1
109 1 2 -1 -6.924843513949605 -6.9837826267511725 -21.45614279245703 0 0 1
90 1 2 -1 -6.95511075956081 -9.717803098306524 -24.21176880201442 0 0 1
94 1 1 1 -7.06790787785475 -9.829498287649697 -21.383494581344394 0 0 1
93 1 2 -1 -6.950771271765851 -12.454896309240153 -21.421159187049447 0 0 1
91 1 2 -1 -4.2785920936438355 -12.48618331019086 -24.320089344104673 0 0 1
92 1 1 1 -4.322751842759448 -9.736204787352882 -24.233589001110055 0 0 1
95 1 1 1 -3.985217154332398 -12.480417855989936 -21.50916274432243 0 0 1
96 1 2 -1 -4.319667129806636 -9.690596478461197 -21.367790152078864 0 0 1
169 1 1 1 -1.4645423461728875 -12.378866350390764 -24.601703703367242 0 0 1
170 1 2 -1 -1.6425900109426639 -9.602871657299026 -24.35103699065697 0 0 1
173 1 2 -1 -1.3934498206545172 -12.322610216692816 -21.58010569836901 0 0 1
174 1 1 1 -1.6033455384564554 -9.625183910944358 -21.383640487287515 0 0 1
105 1 1 1 -7.006926280985118 -6.920038193169513 -24.277009429783 0 0 1
185 1 1 1 -1.3068327457680038 -7.015801464593745 -24.089298251909067 0 0 1
107 1 2 -1 -4.080910736296634 -6.954374755181275 -24.198581150970725 0 0 1
189 1 2 -1 -1.6554847554107859 -6.870575555308635 -21.327272816961074 0 0 1
171 1 2 -1 1.2611934127599476 -12.531434201873624 -24.34313390105206 0 0 1
172 1 1 1 1.2107126076372339 -9.580487775186935 -24.29698629672036 0 0 1
175 1 1 1 1.317658233576882 -12.346337444895777 -21.45785869169964 0 0 1
176 1 2 -1 1.2986038406814515 -9.695786230601914 -21.562483639015447 0 0 1
249 1 1 1 4.138078931310337 -12.328101768354642 -24.45108828951319 0 0 1
250 1 2 -1 4.02757259487692 -9.687594562963351 -24.444505324483604 0 0 1
253 1 2 -1 4.104582444630518 -12.402718914011832 -21.658594138244123 0 0 1
254 1 1 1 4.239073544109958 -9.751123044838472 -21.62964682886087 0 0 1
251 1 2 -1 6.997842378313068 -12.501596144946502 -24.2839302192378 0 0 1
265 1 1 1 4.124535456147482 -6.948776079444301 -24.171586702316674 0 0 1
191 1 1 1 1.4417767547440086 -6.990355509144858 -21.195654427602584 0 0 1
271 1 1 1 6.947484745994435 -7.098596417498933 -21.428625368999818 0 0 1
252 1 1 1 6.816432083454986 -9.779252995169864 -24.53220130819252 0 0 1
255 1 1 1 6.90765735879185 -12.472814384411521 -21.65582435579606 0 0 1
256 1 2 -1 6.880999578905184 -9.764761070564152 -21.810298488417175 0 0 1
329 1 1 1 9.644904247646677 -12.369999190787594 -24.17508775784144 0 0 1
330 1 2 -1 9.595592066407745 -9.828443074953768 -24.25182037661861 0 0 1
331 1 2 -1 12.35926505532649 -12.423798928659318 -24.352316385567512 0 0 1
332 1 1 1 12.259581152766431 -9.479892998516233 -24.18641725596956 0 0 1
333 1 2 -1 9.451867836657419 -12.471991921000338 -21.37569450315391 0 0 1
334 1 1 1 9.490032521800165 -9.81643942361056 -21.565706628388657 0 0 1
335 1 1 1 12.535673082872664 -12.501469110042859 -21.481862427927137 0 0 1
336 1 2 -1 12.41839972840816 -9.765570292138054 -21.209447475013203 0 0 1
347 1 2 -1 12.445485102606535 -6.8872143252255 -24.118787972417667 0 0 1
349 1 2 -1 9.743265686024058 -6.973339356619895 -21.517219082766132 0 0 1
345 1 1 1 9.591889508744861 -6.624035470953699 -24.372445915967972 0 0 1
27 1 2 -1 -9.661000880932436 -6.906941002543162 -24.14310208574664 0 0 1
29 1 2 -1 -12.486902803323591 -6.95394004901196 -21.201359201807634 0 0 1
31 1 1 1 -9.683613589668191 -6.90492287843732 -21.152088607111615 0 0 1
26 1 2 -1 -12.2621328986241 -4.33014587441334 -23.966936316287995 0 0 1
28 1 1 1 -9.605592914429337 -4.38408795323552 -24.09416443162459 0 0 1
30 1 1 1 -12.473721484817986 -4.085914376506176 -21.26252640146539 0 0 1
32 1 2 -1 -9.769386008205434 -4.291420079944215 -21.122497861133287 0 0 1
41 1 1 1 -12.365678624956892 -1.6049002959359573 -24.224316065430354 0 0 1
43 1 2 -1 -9.676330133123205 -1.2998743843578922 -24.226768349240537 0 0 1
45 1 2 -1 -12.376674079934336 -1.5104533788857122 -21.384139127824245 0 0 1
47 1 1 1 -9.632320357070121 -1.6379712266969602 -21.507594889943995 0 0 1
125 1 2 -1 -7.070832440566524 -1.390237837974377 -21.337194598650193 0 0 1
111 1 1 1 -4.44792694746468 -7.014799231363665 -21.45545002933816 0 0 1
121 1 1 1 -6.77589917156684 -1.361175164239949 -24.117206284142974 0 0 1
110 1 1 1 -7.043330994474961 -4.1095306562635905 -21.354010168851968 0 0 1
106 1 2 -1 -6.8939237586189 -4.1152358578960015 -24.19086010348396 0 0 1
108 1 1 1 -3.859640611194049 -4.200775114763406 -24.280496770638297 0 0 1
112 1 2 -1 -4.2515344244220366 -4.220004090090329 -21.270883353147592 0 0 1
123 1 2 -1 -4.1150508932147645 -1.423658223455968 -24.199193379898016 0 0 1
127 1 1 1 -3.8543931695090397 -1.5188496160510159 -21.322602811592304 0 0 1
186 1 2 -1 -1.2943925078999072 -4.203739451831185 -24.129195240485227 0 0 1
190 1 1 1 -1.2210309092878973 -4.068810577702584 -21.31372369499548 0 0 1
201 1 1 1 -1.2857144923070205 -1.3125185491659526 -24.048982488584993 0 0 1
205 1 2 -1 -1.2430432476197222 -1.3988561184988857 -21.51368454220344 0 0 1
269 1 2 -1 4.340653655074346 -6.9877850276135804 -21.317735683856654 0 0 1
267 1 2 -1 6.964694931933876 -6.794029392325314 -24.312729707732277 0 0 1
187 1 2 -1 1.3857320164643259 -6.845896965191156 -24.115934509697357 0 0 1
188 1 1 1 1.5428055727215462 -4.186253074567421 -24.30782844634432 0 0 1
192 1 2 -1 1.4968921343113077 -4.2250229828988175 -21.203654563683347 0 0 1
203 1 2 -1 1.3097544506152392 -1.4523896473784266 -24.332572327557415 0 0 1
207 1 1 1 1.4908180355632972 -1.372420021544965 -21.367514070254146 0 0 1
266 1 2 -1 4.263239142093552 -4.093383088748762 -24.194391107784412 0 0 1
270 1 1 1 4.246593521932448 -4.133834760123495 -21.39171240928131 0 0 1
281 1 1 1 4.147125279143884 -1.458068746804015 -24.165926012827775 0 0 1
285 1 2 -1 4.220511294065508 -1.287676682143772 -21.453163652881596 0 0 1
287 1 1 1 6.915001596473255 -1.2953369012604767 -20.866415147130944 0 0 1
283 1 2 -1 6.859397088019998 -1.5121408133599026 -24.227210261070187 0 0 1
268 1 1 1 6.875473848770769 -4.214582845361393 -24.201728640858413 0 0 1
272 1 2 -1 7.014830945092184 -4.324651203970374 -21.392603899987147 0 0 1
420 4 7 -0.682 6.855407277745398 -0.7994972283937223 -18.635347742183153 0 1 0
351 1 1 1 12.455047529822552 -6.933531985647352 -21.501745770152567 0 0 1
346 1 2 -1 9.656511556292719 -3.991016740912677 -24.267659603147774 0 0 1
348 1 1 1 12.572360859058263 -4.051573937629511 -24.140066891965752 0 0 1
350 1 1 1 9.688499090301677 -4.3017486687217215 -21.407460151419723 0 0 1
352 1 2 -1 12.566825741137238 -4.227855708064741 -21.369637380702574 0 0 1
361 1 1 1 9.463997839384687 -1.4679461861029122 -23.95554004734023 0 0 1
363 1 2 -1 12.50277351434429 -1.4364469426623945 -24.123599874606402 0 0 1
365 1 2 -1 9.50269483480386 -1.61240339541731 -21.28691245617018 0 0 1
367 1 1 1 12.363162094262458 -1.4258754679762475 -21.344671422858415 0 0 1
42 1 2 -1 -12.550935772054599 1.4720395352181335 -24.30428044008102 0 0 1
44 1 1 1 -9.783671089497474 1.4401314814040358 -24.34933468196603 0 0 1
46 1 1 1 -12.506872672798087 1.1764510163004243 -21.684778328803134 0 0 1
48 1 2 -1 -9.727661015304538 1.318316686175935 -21.528503494635945 0 0 1
57 1 1 1 -12.328224959187548 4.270254552364053 -24.27243445262845 0 0 1
59 1 2 -1 -9.6577587265562 4.2831210124869425 -24.296863252647427 0 0 1
61 1 2 -1 -12.370340576032321 4.227068851484278 -21.683282597067496 0 0 1
63 1 1 1 -9.739058140252062 4.100561545480767 -21.166531542410937 0 0 1
142 1 1 1 -6.873960718434973 6.964426623677609 -21.668559138059113 0 0 1
141 1 2 -1 -7.108729709412502 4.117197821981817 -21.194884715928406 0 0 1
60 1 1 1 -9.662250408356037 7.030701775328689 -24.125997953247907 0 0 1
58 1 2 -1 -12.36067077154355 6.986196358473281 -24.30495684180292 0 0 1
122 1 2 -1 -6.923952157357331 1.4824730480905028 -24.16137416779761 0 0 1
126 1 1 1 -6.915717289252766 1.277611715081191 -21.224531418857513 0 0 1
137 1 1 1 -6.951804073388206 4.048945114197133 -24.502460123960216 0 0 1
124 1 1 1 -4.087671093747504 1.236166020311062 -24.03235405258569 0 0 1
128 1 2 -1 -4.110218523594304 1.2214528871357437 -21.32192734824332 0 0 1
139 1 2 -1 -4.130658921871175 3.9179039644041342 -24.36811675900456 0 0 1
143 1 1 1 -4.220204188798181 4.302447559429323 -21.59565622418272 0 0 1
202 1 2 -1 -1.2389018504312936 1.389501974036401 -24.285307872826024 0 0 1
206 1 1 1 -1.458345582745757 1.3503598378651045 -21.282384177527643 0 0 1
217 1 1 1 -1.397845145297877 4.116402741230674 -24.363843704261814 0 0 1
221 1 2 -1 -1.4528912569535812 4.093051566602535 -21.43020240172744 0 0 1
218 1 2 -1 -1.5688635092820569 6.945873135606602 -24.370134778816524 0 0 1
144 1 2 -1 -4.2486974848708545 6.882434951226271 -21.750711306026506 0 0 1
222 1 1 1 -1.4292856588116987 6.982059978188628 -21.698439550597868 0 0 1
138 1 2 -1 -6.918590517946554 6.850946215098935 -24.42686340510578 0 0 1
204 1 1 1 1.3896459617765053 1.4256434477545827 -24.2575265943919 0 0 1
208 1 2 -1 1.4934323487562846 1.6350158617225734 -21.402905147773605 0 0 1
219 1 2 -1 1.194231901921622 4.181821807875734 -24.402699494931916 0 0 1
223 1 1 1 1.5071036784501537 4.17790489691429 -21.44595965040205 0 0 1
282 1 2 -1 4.197452764938399 1.4746156604342353 -24.2488108289372 0 0 1
286 1 1 1 4.31566273705115 1.389710210287756 -21.626915608700582 0 0 1
297 1 1 1 4.042545821868716 4.22926379232795 -24.308369466772643 0 0 1
301 1 2 -1 4.163672330589909 4.133491578004326 -21.256888676006486 0 0 1
299 1 2 -1 6.6813468921877135 4.176108873057904 -24.211282822428746 0 0 1
303 1 1 1 6.85021950511217 4.19983235857393 -21.297320961240867 0 0 1
419 4 5 0.416 6.451803469793711 -0.0006295668912876806 -18.25814483487949 0 1 0
284 1 1 1 6.9040823426551245 1.519524944016288 -24.111414919948533 0 0 1
288 1 2 -1 6.971968753655384 1.5434625740125991 -21.032335008123923 0 0 1
362 1 2 -1 9.65019774880591 1.3011097836019445 -24.03619631808929 0 0 1
364 1 1 1 12.460803117692384 1.2490460467848958 -24.43971419503642 0 0 1
366 1 1 1 9.575254554097468 1.5387633713743707 -21.26515959432894 0 0 1
368 1 2 -1 12.208479856879665 1.155101409498286 -21.286911906553023 0 0 1
377 1 1 1 9.688479449738347 4.154405841389844 -24.15189925833252 0 0 1
379 1 2 -1 12.392046458147684 4.108161212751581 -24.364237182740936 0 0 1
381 1 2 -1 9.6919640912082 4.234987359754209 -21.577374400089617 0 0 1
383 1 1 1 12.409285079611914 4.029897337875669 -21.60429946981372 0 0 1
380 1 1 1 12.394138382503643 6.938125404418846 -24.164067033745166 0 0 1
378 1 2 -1 9.569641037986388 6.900579964787243 -24.262836021926052 0 0 1
64 1 2 -1 -9.727195483374025 6.980749987946657 -21.504728845872652 0 0 1
62 1 1 1 -12.438806724137235 6.861892491806239 -21.540988866558628 0 0 1
73 1 1 1 -12.43716153802453 9.662205916689809 -24.02743607180985 0 0 1
74 1 2 -1 -12.640634475655148 12.330951294642313 -24.465735493235687 0 0 1
75 1 2 -1 -9.814035198671801 9.67197689704795 -24.32693344957437 0 0 1
76 1 1 1 -9.7431880704157 12.360081456847398 -24.236917647181528 0 0 1
77 1 2 -1 -12.544813112644107 9.459085479173678 -21.41187731817837 0 0 1
78 1 1 1 -12.333890590557814 12.353743270664255 -21.140423572460353 0 0 1
79 1 1 1 -9.510492718112065 9.652106793028162 -21.367065469712294 0 0 1
80 1 2 -1 -9.693280006744384 12.339659969229883 -21.589112873654642 0 0 1
153 1 1 1 -7.032179994035893 9.73105134361967 -24.198902764378584 0 0 1
154 1 2 -1 -6.989164219895448 12.463014243670179 -24.20668100791346 0 0 1
140 1 1 1 -4.196063361162993 6.986092423017842 -24.470260305520966 0 0 1
157 1 2 -1 -6.881893173319859 9.585689936979106 -21.476445162249632 0 0 1
158 1 1 1 -6.871960010190765 12.268779985519833 -21.395323816583115 0 0 1
155 1 2 -1 -4.138924213658083 9.645677515092311 -24.442784590114393 0 0 1
156 1 1 1 -4.287998064968875 12.439712440851169 -24.22507784877155 0 0 1
159 1 1 1 -4.076509784980088 9.6974057586199 -21.579361952133063 0 0 1
160 1 2 -1 -3.9504710921958583 12.343007456659292 -21.56017837866217 0 0 1
233 1 1 1 -1.416020488114027 9.769634700832464 -24.257894083193726 0 0 1
234 1 2 -1 -1.4313661801325477 12.495838293240327 -24.13838386029754 0 0 1
237 1 2 -1 -1.42512992807956 9.60123826596685 -21.492234325405267 0 0 1
238 1 1 1 -1.4257139927259335 12.594557606949818 -21.570426668556046 0 0 1
298 1 2 -1 4.174337647239325 6.9411531697308195 -24.36824098409563 0 0 1
302 1 1 1 4.24468172104139 7.0817719820727785 -21.463935483325454 0 0 1
224 1 2 -1 1.2625653811595487 6.888466703397389 -21.5168874911622 0 0 1
220 1 1 1 1.1868361159394762 6.95453314183885 -24.33706149135595 0 0 1
304 1 2 -1 6.902400871013272 7.08803449016081 -21.34185703967813 0 0 1
300 1 1 1 6.924593460131126 6.881767322719872 -24.115681947260615 0 0 1
235 1 2 -1 1.458895098596484 9.853939763600676 -24.388418362506865 0 0 1
236 1 1 1 1.4295773902361884 12.421703661515812 -24.3272202037674 0 0 1
239 1 1 1 1.2808438003351057 9.562922596148029 -21.232675299914753 0 0 1
240 1 2 -1 1.3387338361394203 12.466892754071745 -21.430340754065426 0 0 1
313 1 1 1 4.174650049449612 9.639638667542291 -24.482117428997885 0 0 1
314 1 2 -1 4.51136901093439 12.423630194553828 -24.389379514799614 0 0 1
317 1 2 -1 4.196211227871389 9.745690504140475 -21.661518799533834 0 0 1
318 1 1 1 3.9752277903402895 12.56086554197959 -21.732896943741107 0 0 1
319 1 1 1 7.134938619805782 9.704229323334266 -21.702918183090564 0 0 1
320 1 2 -1 6.9747983295709535 12.376343781484605 -21.510519472767264 0 0 1
316 1 1 1 6.9416540993752545 12.367791937732944 -24.35658652460773 0 0 1
315 1 2 -1 7.0116138403441095 9.643516629582217 -24.423237104504793 0 0 1
384 1 2 -1 12.404584141261447 6.807006782563247 -21.50106155766715 0 0 1
382 1 1 1 9.637791028980446 6.879397814048572 -21.5098925011011 0 0 1
393 1 1 1 9.572260882136733 9.68164230239242 -24.473933024885323 0 0 1
394 1 2 -1 9.67519037533272 12.488819966074496 -24.200516460954052 0 0 1
395 1 2 -1 12.397095788592088 9.575029746266713 -24.362898528397142 0 0 1
396 1 1 1 12.42964678972474 12.364916311350525 -24.201942239320182 0 0 1
397 1 2 -1 9.709824401874792 9.520010240620659 -21.328853879695426 0 0 1
398 1 1 1 9.541108320519912 12.38602961289409 -21.421701689332743 0 0 1
399 1 1 1 12.481080157802593 9.7162953138396 -21.458269765979395 0 0 1
400 1 2 -1 12.343421247063697 12.494905301672551 -21.31244829808527 0 0 1
482 11 5 0.416 -12.937744235262016 -12.119901387001423 -18.849735385071906 0 1 0
486 11 4 -0.029 12.819369341996593 -11.268643633965523 -17.720642574807936 -1 1 0
408 2 4 0.079 -0.7597362949941786 -7.2136282138507 -17.197272346274747 -1 0 0
407 2 4 0.079 0.00825080968501446 -8.049845397075053 -18.47478233672852 -1 0 0
409 2 4 0.079 0.9092663791064037 -7.959926166086946 -16.96844637302956 -1 0 0
410 3 5 0.416 2.9506407780833275 -9.77454519529535 -19.47629755414725 0 0 0
411 3 7 -0.682 3.905693436423922 -9.857843111233638 -19.40982513804753 0 0 0
412 3 6 0.372 4.219680246517489 -9.427126664118862 -18.12800615556313 0 0 0
416 3 4 0.079 4.334387152084625 -10.174181932646206 -16.197753801789915 0 0 0
415 3 3 -0.285 4.422001418379034 -10.543169170194439 -17.20365292841299 0 0 0
417 3 4 0.079 5.492486023204409 -10.908467935269872 -17.242661122935402 0 0 0
414 3 4 -0.029 5.178431301224519 -8.814935196520242 -18.0836043145948 0 0 0
418 3 4 0.079 3.7419596794010896 -11.360737542570213 -17.40189438486575 0 0 0
413 3 4 -0.029 3.5918711292560968 -8.725986563211157 -17.666197679750077 0 0 0
406 2 3 -0.285 0.2563305195017218 -7.351553132571003 -17.65810217065647 -1 0 0
447 7 7 -0.682 7.217292034716783 -7.313257654105589 -19.193270857727825 0 0 0
432 5 4 -0.029 7.644753880284481 -11.717799644464485 -18.28850266131779 -1 1 0
446 7 5 0.416 7.320825510147001 -8.292289269930553 -19.161191127497936 0 0 0
428 5 5 0.416 7.077361919846721 -9.965989427894272 -19.585076463077595 -1 1 0
484 11 6 0.372 12.803240518050368 -12.216119567656527 -18.179115713835944 -1 1 0
483 11 7 -0.682 -13.414913780302747 -12.648028527329288 -18.19502015534379 0 1 0
488 11 4 0.079 10.886286928902168 -13.030706240584891 -17.44014621552613 -1 1 0
485 11 4 -0.029 12.368045716187515 -12.235743992240966 -19.16699128741028 -1 1 0
435 5 4 0.079 9.60906894124369 -9.547434262357982 -17.336507514533825 -1 1 0
487 11 3 -0.285 11.975161137474492 -13.188019096025684 -17.280203145266903 -1 1 0
490 11 4 0.079 12.149484681657091 13.407512079526056 -17.65720795045219 -1 0 0
434 5 4 0.079 8.304301441817943 -10.033254812139576 -16.392885293661102 -1 1 0
429 5 7 -0.682 7.756981857955671 -9.713453006636213 -18.927820519947083 -1 1 0
431 5 4 -0.029 9.160685658410769 -11.156044570920173 -19.091626564148797 -1 1 0
430 5 6 0.372 8.406337845612248 -10.86055178453757 -18.359110626766547 -1 1 0
433 5 3 -0.285 9.01936167990977 -10.455752810106567 -17.10158159304689 -1 1 0
436 5 4 0.079 9.691870595416601 -11.276023317765281 -16.695738733048806 -1 1 0
489 11 4 0.079 12.230121890026483 -13.009262173885464 -16.253415765901618 -1 1 0
453 7 4 0.079 7.206095061433642 -7.919184370030638 -16.552266929292472 0 0 0
404 2 4 -0.029 0.2583359251871826 -5.411319786053637 -18.812257586850937 -1 0 0
402 2 7 -0.682 1.9619932212678712 -6.611624252946132 -19.051622293598584 -1 0 0
455 8 5 0.416 5.097232374590744 -5.634984816972375 -19.425552635619013 0 0 0
456 8 7 -0.682 4.504924230896977 -5.057771156869467 -18.91178201346465 0 0 0
403 2 6 0.372 0.9193690692883614 -6.0728649635938625 -18.228305141809948 -1 0 0
405 2 4 -0.029 1.293160118660131 -5.4399146479255 -17.403238636961998 -1 0 0
401 2 5 0.416 2.603981274727941 -5.861874613085657 -19.204096574680733 -1 0 0
462 8 4 0.079 3.5046124378249512 -4.114247675145174 -16.442132767010882 0 0 0
461 8 4 0.079 4.698123297138084 -5.4937174421385 -16.237262415648775 0 0 0
463 8 4 0.079 5.159444709443013 -3.8072370485873765 -15.963513826470303 0 0 0
460 8 3 -0.285 4.58204815101749 -4.479682370214171 -16.60870701306777 0 0 0
457 8 6 0.372 5.144361158925568 -4.22559769827642 -17.941916305245424 0 0 0
458 8 4 -0.029 4.987828945681381 -3.1614278517334498 -18.09777371039886 0 0 0
459 8 4 -0.029 6.233415037834307 -4.518161580308178 -17.979151276306105 0 0 0
454 7 4 0.079 6.626064478501688 -6.305398551392219 -16.92915946498072 0 0 0
422 4 4 -0.029 7.9633590874149025 -2.423467927538198 -17.833280808061552 0 1 0
450 7 4 -0.029 9.047718886424457 -7.353944808857202 -18.364881371380417 0 0 0
426 4 4 0.079 9.547825326527741 -0.6547954267747027 -18.396549911059044 0 1 0
425 4 4 0.079 8.757616029500996 0.3077966597585515 -17.097618210322455 0 1 0
448 7 6 0.372 8.106203676995863 -6.769069392338565 -18.201180831301656 0 0 0
424 4 3 -0.285 8.966006506519586 -0.664326546804638 -17.465546215137095 0 1 0
451 7 3 -0.285 7.5285117134599435 -6.918645515193316 -16.800384504587306 0 0 0
449 7 4 -0.029 8.389060606537514 -5.668784683186637 -18.328333786755724 0 0 0
452 7 4 0.079 8.192780506293202 -6.467115131780767 -16.100348663796847 0 0 0
421 4 6 0.372 7.689851385154496 -1.4013191029864664 -17.673026476175714 0 1 0
427 4 4 0.079 9.54161303804164 -1.1865989826207688 -16.667613085373617 0 1 0
423 4 4 -0.029 7.160122478392916 -1.345543864299385 -16.71577813325748 0 1 0
476 10 4 -0.029 -13.03581351400389 11.300404731596155 -17.56568703474248 1 -1 0
474 10 7 -0.682 -12.33860735904656 12.600542506492504 -18.91115205924233 1 -1 0
475 10 6 0.372 -12.074336421765556 11.706214706104069 -17.830658869683795 1 -1 0
479 10 4 0.079 -11.055865880325698 9.924552813383103 -17.34362355479324 1 -1 0
478 10 3 -0.285 -11.02476355248393 10.64051646543941 -18.151156971902783 1 -1 0
480 10 4 0.079 -10.0253681461236 10.975632587505773 -18.312236996265735 1 -1 0
481 10 4 0.079 -11.354100368620646 10.120731706190318 -18.979653927412585 1 -1 0
473 10 5 0.416 -12.838141860569564 13.415970649005201 -18.53643610468185 1 -1 0
477 10 4 -0.029 -11.72744422282237 12.290562770874418 -16.905059246732808 1 -1 0
439 6 6 0.372 -12.345657206795483 -0.28046322853732875 17.742066862425432 1 0 0
442 6 3 -0.285 -10.91915417968988 -0.738116080684156 17.51668406322328 1 0 0
438 6 7 -0.682 -12.919748943241457 -0.8833128824716407 18.907546480389946 1 0 0
445 6 4 0.079 -10.355690103616961 -0.1462136388203028 16.766877970660673 1 0 0
443 6 4 0.079 -10.854194572310785 -1.782396242635043 17.20620254018631 1 0 0
441 6 4 -0.029 -12.921182318261517 -0.3950660183695618 16.84600635252859 1 0 0
440 6 4 -0.029 -12.248040192673374 0.8012853549807346 17.84438012153806 1 0 0
444 6 4 0.079 -10.380257081770498 -0.6403114599281743 18.493583039965422 1 0 0
470 9 4 0.079 10.722626498732764 1.080866916540483 16.764592462098342 -3 -1 0
472 9 4 0.079 9.994318847551357 -0.46242729376209724 17.311207285969303 -3 -1 0
469 9 3 -0.285 10.591640413272058 0.41372994457853807 17.621518227137436 -3 -1 0
471 9 4 0.079 10.16887386620664 0.9526661187109937 18.45877137282195 -3 -1 0
468 9 4 -0.029 12.47427697096604 -0.4000965204846594 17.10593312594225 -3 -1 0
467 9 4 -0.029 11.82830246250773 -0.9193292524499324 18.66696745516598 -3 -1 0
466 9 6 0.372 11.97701500648711 -0.03745678827899823 17.997210268829875 -3 -1 0
465 9 7 -0.682 12.639714684710144 1.0482160668492355 18.770744458697294 -3 -1 0
464 9 5 0.416 12.66805881671961 1.8533483607744135 18.22533687891304 -3 -1 0
1 1 1 1 -12.691724270517687 -12.428619915549119 21.716250184947988 0 0 0
2 1 2 -1 -12.493315458488794 -9.56997219438005 21.597492376758396 0 0 0
3 1 2 -1 -9.77180719229871 -12.368061310216227 21.570769264823916 0 0 0
4 1 1 1 -9.797519225013449 -9.519356085385493 21.79076663706529 0 0 0
5 1 2 -1 -12.521784717853336 -12.423958574618021 24.431208458095732 0 0 0
6 1 1 1 -12.465431156279255 -9.544926524931334 24.387782617902744 0 0 0
7 1 1 1 -9.868973535056535 -12.615097684931206 24.4390220746187 0 0 0
8 1 2 -1 -9.694185822894994 -9.572954076912087 24.406782544352076 0 0 0
21 1 2 -1 -12.373385635509791 -6.8897437605050165 24.426040160802266 0 0 0
85 1 2 -1 -7.1218304639250265 -12.478642052275184 24.151349009123415 0 0 0
17 1 1 1 -12.375560863292304 -6.724303772248889 21.43728185713865 0 0 0
19 1 2 -1 -9.675379465619413 -6.793833658696253 21.75243164734875 0 0 0
23 1 1 1 -9.60077374788111 -6.7266770082910465 24.514307430013332 0 0 0
86 1 1 1 -7.027977367367203 -9.70654329827369 24.37560431417868 0 0 0
81 1 1 1 -7.001273973010397 -12.324288244637778 21.514913244037047 0 0 0
82 1 2 -1 -6.961101579328206 -9.648668623945202 21.518401593606157 0 0 0
83 1 2 -1 -4.3361820088324485 -12.367231709564848 21.464288100866156 0 0 0
84 1 1 1 -4.238124876131071 -9.834813402010429 21.51743802822817 0 0 0
87 1 1 1 -4.052183977695162 -12.417772433555708 24.247413036975637 0 0 0
88 1 2 -1 -4.290721493131395 -9.800316916907297 24.210790723568792 0 0 0
161 1 1 1 -1.3300678715231111 -12.298596278786727 21.528140907147602 0 0 0
162 1 2 -1 -1.2389162104149047 -9.662811333706738 21.497030569324544 0 0 0
165 1 2 -1 -1.385794679049301 -12.396393399904213 24.229537101308487 0 0 0
166 1 1 1 -1.2774429497782585 -9.666827819462565 24.26726504932993 0 0 0
177 1 1 1 -1.3347730371528872 -7.077952566245558 21.276779911931676 0 0 0
101 1 2 -1 -6.6830981175736905 -6.804634543140223 24.307500578459496 0 0 0
163 1 2 -1 1.3932136493010958 -12.43472429963917 21.48014738419411 0 0 0
164 1 1 1 1.383045209675787 -9.773372760241662 21.165102740218224 0 0 0
167 1 1 1 1.3619104313786483 -12.39887247324965 24.242808073638827 0 0 0
168 1 2 -1 1.399325002414642 -9.668684120900627 24.260637642716297 0 0 0
241 1 1 1 4.339538962951751 -12.382502401305295 21.523290991119232 0 0 0
242 1 2 -1 4.086948002857168 -9.637653002717382 21.420675135001602 0 0 0
245 1 2 -1 4.247135306093535 -12.409454706488704 24.15943855276973 0 0 0
246 1 1 1 4.080085744595804 -9.466399305504869 24.1259278710601 0 0 0
259 1 2 -1 6.8107169901464015 -6.776649858096961 21.361495666697415 0 0 0
179 1 2 -1 1.418702394032577 -7.002349086189498 21.2716622602047 0 0 0
248 1 2 -1 6.767667198850168 -9.46240805353187 24.080920766496376 0 0 0
263 1 1 1 6.970218064517082 -6.863817696652091 24.30398819929652 0 0 0
183 1 1 1 1.3743902474085221 -6.93149145030373 24.257943386017125 0 0 0
244 1 1 1 6.941821730353896 -9.462807416389769 21.28976739292117 0 0 0
243 1 2 -1 7.026269880718219 -12.290737473528807 21.2989772533112 0 0 0
247 1 1 1 6.981199954761491 -12.419230056354081 24.24599177466048 0 0 0
321 1 1 1 9.657867124354945 -12.165151310510804 21.50478715078858 0 0 0
322 1 2 -1 9.675175862510576 -9.324326119167136 21.423490343488808 0 0 0
323 1 2 -1 12.279024984517834 -12.283994294230158 21.413326514250443 0 0 0
324 1 1 1 12.341767359597325 -9.488974726768083 21.353969126508012 0 0 0
325 1 2 -1 9.56795955483942 -12.196897673547586 24.163068204776437 0 0 0
326 1 1 1 9.869847016600593 -9.445872943032398 24.402451480091052 0 0 0
327 1 1 1 12.374898130527066 -12.372019281484135 24.407747538937997 0 0 0
328 1 2 -1 12.44087875393607 -9.579089864033065 24.3221574632811 0 0 0
341 1 2 -1 9.743792317295265 -6.825691740312911 24.3211717214434 0 0 0
18 1 2 -1 -12.287576437525267 -3.9910197359143478 21.507386188023624 0 0 0
20 1 1 1 -9.562373378587672 -3.947322629972822 21.56431737226621 0 0 0
22 1 1 1 -12.473019132940461 -4.094322726180513 24.402066343908643 0 0 0
24 1 2 -1 -9.612682553402317 -4.071826393996615 24.528476534183547 0 0 0
33 1 1 1 -12.348661267624493 -1.287116461328564 21.02048780917579 0 0 0
35 1 2 -1 -9.69556543994809 -1.2135739608162979 21.39411151208016 0 0 0
37 1 2 -1 -12.326709312886729 -1.295713838419644 24.435232693321453 0 0 0
39 1 1 1 -9.673888988804256 -1.4854665807837133 24.505780808586245 0 0 0
98 1 2 -1 -6.927653251425244 -4.2263894890640525 21.32776022042244 0 0 0
113 1 1 1 -6.798753378473609 -1.3222104204601415 21.587170466657938 0 0 0
99 1 2 -1 -3.97493556623564 -7.086961387138604 21.55328185275767 0 0 0
97 1 1 1 -6.664023264215569 -7.04350109358653 21.522713116665322 0 0 0
117 1 2 -1 -6.807470457864809 -1.510772864438021 24.348685409144636 0 0 0
103 1 1 1 -3.9008705558701067 -7.097949972369307 24.21336963663059 0 0 0
181 1 2 -1 -1.314482656068856 -6.8739666832440545 24.531813929316726 0 0 0
102 1 1 1 -6.817265800948939 -4.090815069148098 24.27796642792549 0 0 0
100 1 1 1 -4.184227718750034 -4.227240939733774 21.283798367560323 0 0 0
104 1 2 -1 -3.9724073214836366 -4.293689749019833 24.20736254121413 0 0 0
115 1 2 -1 -4.133196674830447 -1.4456520751442028 21.50062995835183 0 0 0
119 1 1 1 -4.14965679848793 -1.4152186836601626 24.38878408337211 0 0 0
178 1 2 -1 -1.480794480691019 -4.293512502001256 21.359828007152373 0 0 0
182 1 1 1 -1.112218457215091 -4.348455166843754 24.36199642998995 0 0 0
193 1 1 1 -1.457354281971467 -1.563137769538649 21.53414104264411 0 0 0
197 1 2 -1 -1.2179234074859462 -1.4535748256051217 24.22042087464888 0 0 0
261 1 2 -1 4.083087251526008 -6.876239345944155 24.30394174157039 0 0 0
257 1 1 1 4.159528582188214 -6.861158007876063 21.399531785758704 0 0 0
180 1 1 1 1.2397036128417511 -4.247195363591503 21.60677195021647 0 0 0
184 1 2 -1 1.538132264957838 -4.187263505055217 24.34914598936583 0 0 0
195 1 2 -1 1.3344295903683783 -1.4269391213324596 21.28078842482507 0 0 0
199 1 1 1 1.4619635523967975 -1.316561078956072 24.286168192141282 0 0 0
258 1 2 -1 3.953245135268064 -4.099614140319211 21.4988614237199 0 0 0
262 1 1 1 4.187662045782579 -4.125704080477517 24.165792756942146 0 0 0
273 1 1 1 3.9139693036360743 -1.2205112896574537 21.560735942280985 0 0 0
277 1 2 -1 4.281067248770052 -1.3702718996646261 24.257727121835593 0 0 0
264 1 2 -1 6.899790961155402 -4.198060479391533 24.111113373093367 0 0 0
279 1 1 1 6.8971051039463465 -1.3348201659050627 24.20424482318638 0 0 0
437 6 5 0.416 -13.768545853523174 -0.3874783812496201 19.1305477794941 1 0 0
337 1 1 1 9.602301652575362 -6.5647389216438965 21.67647681683991 0 0 0
343 1 1 1 12.45153512370897 -6.704201850930484 24.56990534578783 0 0 0
275 1 2 -1 6.770316045545647 -1.4603558740549598 21.284658579597505 0 0 0
339 1 2 -1 12.616303309625684 -6.763637014960936 21.652105124441377 0 0 0
260 1 1 1 6.837181668317092 -4.115395839328162 21.300793523327023 0 0 0
338 1 2 -1 9.541074281115732 -3.967342731646669 21.379997070711717 0 0 0
340 1 1 1 12.616886099357478 -3.9601608594981528 21.501263126243998 0 0 0
342 1 1 1 9.532209740187087 -3.9378311188842723 24.20573097236401 0 0 0
344 1 2 -1 12.466479236351967 -4.064327921629099 24.25352219813623 0 0 0
353 1 1 1 9.858849521323519 -1.2755227733195866 21.530430761768613 0 0 0
355 1 2 -1 12.482789227854736 -1.26780254437306 21.438501804345933 0 0 0
357 1 2 -1 9.667332155621656 -1.2607101799392328 24.264170586356244 0 0 0
359 1 1 1 12.362486639289544 -1.1462217407476256 24.37540537533429 0 0 0
34 1 2 -1 -12.367808206396385 1.3679183227538072 21.551664970644715 0 0 0
36 1 1 1 -9.643337243339733 1.4561226425857097 21.496150104797174 0 0 0