LAMMPS data file via write_data, version 2 Aug 2023, timestep = 400000, units = real

1491 atoms
5 atom types
686 bonds
1 bond types
343 angles
1 angle types

-12.120000000000001 12.120000000000001 xlo xhi
-12.120000000000001 12.120000000000001 ylo yhi
-28.28 28.28 zlo zhi

Masses

1 15.9994
2 1.008
3 28.99
4 35.453
5 26.9815

Pair Coeffs # lj/cut/tip4p/long

1 0.185199 3.1589
2 0 0
3 0.0469 2.4299
4 0.15 4.0447
5 11.697 2.574

Bond Coeffs # harmonic

1 0 0.9572

Angle Coeffs # harmonic

1 0 104.52

Atoms # full

478 16 1 -1.1128 -8.905325037772664 -10.39513565670235 -6.629919867327816 0 0 0
86 0 5 0 -10.857931934445636 -10.046312161702227 -9.056259439008283 0 0 0
484 18 1 -1.1128 -7.056313095938896 -8.293599441107517 -6.449935055354846 0 0 0
451 7 1 -1.1128 -10.679485996020146 -7.807653903815113 -6.409206615669828 1 0 0
544 38 1 -1.1128 -8.770703126167037 -6.0550777166062995 -6.777490009723922 0 0 0
545 38 2 0.5564 -8.285264615897741 -5.232801294704509 -6.844212514904219 0 0 0
452 7 2 0.5564 -10.23500538717305 -6.961134577020036 -6.454834953273154 1 0 0
453 7 2 0.5564 -10.008837479605047 -8.444452897257655 -6.656107346925616 1 0 0
480 16 2 0.5564 -9.670086212365762 -10.935763676467083 -6.827609749899014 0 0 0
485 18 2 0.5564 -6.15688158394981 -8.621113982880154 -6.447979064235535 0 0 0
479 16 2 0.5564 -8.35840087037834 -10.947974748328354 -6.071811447008615 0 0 0
546 38 2 0.5564 -8.148054567647927 -6.724944338552654 -7.060034637431389 0 0 0
486 18 2 0.5564 -7.596441506925047 -9.076192364736013 -6.559636407344152 0 0 0
1153 241 1 -1.1128 -7.16342792009786 -3.8580688846809656 -6.537587449810262 0 0 0
1045 205 1 -1.1128 -11.048894511501873 -4.061162829142903 -6.469791445025086 0 0 0
1154 241 2 0.5564 -7.915189548042319 -3.2661366728716033 -6.5639256466711915 0 0 0
1155 241 2 0.5564 -6.424229175783545 -3.319960044963024 -6.820896741802591 0 0 0
1047 205 2 0.5564 -10.506437215252717 -4.199324573036433 -7.2462524759128915 0 0 0
1046 205 2 0.5564 -11.752833010407077 -4.704636746872828 -6.551234337489645 0 0 0
291 0 5 0 -8.919359499292698 -3.920445065297095 -9.033844167422638 0 0 0
100 0 5 0 -6.9073645512609785 -5.947484329843882 -9.00323426467624 0 0 0
99 0 5 0 -8.859405470016162 -8.06583347479927 -9.037214830933832 0 0 0
88 0 5 0 -6.740212196513008 -10.086469003842243 -8.978223228364026 0 0 0
98 0 5 0 -10.867954852101835 -6.057939923780509 -9.090665939249382 0 0 0
55 0 5 0 -6.830603245770431 -8.014784993269057 -11.027707756449011 0 0 0
56 0 5 0 -8.930328412002712 -6.029635485706262 -11.046462174106457 0 0 0
219 0 5 0 -10.844285218841645 -3.9531970427321936 -11.052850424424788 0 0 0
223 0 5 0 -6.863698797127914 -3.9784876286633004 -10.994640563597327 0 0 0
32 0 5 0 -8.789659865756716 -10.004938995356 -11.042811759006787 0 0 0
51 0 5 0 -10.897459561863014 -8.048820100979867 -11.074185529726103 0 0 0
30 0 5 0 -6.807466329125895 -10.047845843252617 -13.164876404952453 0 0 0
222 0 5 0 -6.822084031174847 -1.9084850172774075 -12.923663561241767 0 0 0
218 0 5 0 -10.83235093324633 -1.9468437613762928 -13.172049745309728 0 0 0
292 0 5 0 -6.905071054644897 -1.9016614870658355 -9.038145632253897 0 0 0
221 0 5 0 -8.83548110950532 -3.9603976479661287 -13.007009082968414 0 0 0
224 0 5 0 -8.87930404079412 -1.9813503104362167 -11.078093179388565 0 0 0
290 0 5 0 -10.859802174195845 -1.9244015539992918 -9.030713802151 0 0 0
50 0 5 0 -10.773794657011864 -6.003792193063267 -13.136319910257756 0 0 0
54 0 5 0 -6.879503532513617 -6.008095507410928 -13.048865495040973 0 0 0
53 0 5 0 -8.85885589276207 -8.001602488901774 -13.039851552412673 0 0 0
26 0 5 0 -10.796077127906427 -10.13567986731546 -13.145005425889519 0 0 0
36 0 5 0 -4.85055465983672 -10.036361211670599 -11.049728861641569 0 0 0
481 17 1 -1.1128 -4.849361658217669 -10.042663462286146 -6.488466881346175 0 0 0
547 39 1 -1.1128 -4.720581631371239 -5.959699793276078 -6.754564115379772 0 0 0
101 0 5 0 -4.77109478713168 -7.979982830345751 -8.966088769382898 0 0 0
60 0 5 0 -4.824441354256089 -6.008020033220708 -11.01427810835957 0 0 0
225 0 5 0 -4.861245798549568 -3.888663488718197 -12.935543499991839 0 0 0
57 0 5 0 -4.7738601845233175 -8.09993410139897 -13.05337977529351 0 0 0
1048 206 1 -1.1128 -9.026813947870965 -1.8433174508886936 -6.577485139664281 0 0 0
964 178 1 -1.1128 -4.824679707179046 -2.109551131723674 -6.613728342213889 0 0 0
228 0 5 0 -4.83953144632054 -1.9081258233039278 -10.94969158850445 0 0 0
293 0 5 0 -4.840603489330831 -3.9640027546150485 -9.002669493218114 0 0 0
1050 206 2 0.5564 -8.333974025388976 -1.2435177352414681 -6.853994223205397 0 0 0
1049 206 2 0.5564 -9.062392429839937 -1.746496296199474 -5.625859462501905 0 0 0
1464 0 3 1.1 -5.178513327433849 -10.741797416640408 -3.7647692897712814 0 0 0
516 28 2 0.5564 -4.385873421569351 -1.4901296523732144 -3.2446910819403905 1 -1 0
514 28 1 -1.1128 -4.793837917926839 -1.2634953672231077 -4.080417990228805 1 -1 0
966 178 2 0.5564 -4.585326368415236 -1.9796828505028743 -5.696079915095133 0 0 0
515 28 2 0.5564 -5.438696406634666 -0.5918754949518742 -3.858365972795703 1 -1 0
758 109 2 0.5564 -9.520441313226968 -9.223060443883375 -0.45819535931245015 1 -1 0
757 109 1 -1.1128 -10.314782013396341 -8.741784959278158 -0.689797486517364 1 -1 0
759 109 2 0.5564 -10.9474347278736 -9.421065411088351 -0.9233588403297031 1 -1 0
734 101 2 0.5564 -10.505851940840602 -3.9753500966250512 -4.799336669925342 1 0 0
733 101 1 -1.1128 -10.29941988444235 -3.989366407064152 -3.864768572927625 1 0 0
622 64 1 -1.1128 -6.762819048757106 -3.547047007429748 -3.8867418515377925 0 0 0
624 64 2 0.5564 -6.0343358593721135 -2.9359260053960328 -3.776807422923167 0 0 0
623 64 2 0.5564 -6.764601320242237 -3.7526292286971845 -4.821603343066485 0 0 0
1160 243 2 0.5564 -8.554471304081893 -6.56218705906901 -4.727946147854177 1 0 0
735 101 2 0.5564 -9.748774710859959 -3.218260297544345 -3.729038392553845 1 0 0
1114 228 1 -1.1128 -6.802525841910025 -8.934539415287741 -2.9029113862344302 1 0 0
1159 243 1 -1.1128 -8.169483120456064 -6.412129845760904 -3.8645278882533285 1 0 0
1115 228 2 0.5564 -7.5139761865084 -9.564983684958161 -2.7906639373905664 1 0 0
1116 228 2 0.5564 -7.221049829489048 -8.167396933767485 -3.2934964194202605 1 0 0
1161 243 2 0.5564 -8.133509934094539 -5.459338567289589 -3.7801009335736087 1 0 0
482 17 2 0.5564 -5.614839169655564 -10.61533426344696 -6.536542928364303 0 0 0
988 186 1 -1.1128 -4.053783610599751 -8.58050288621699 -3.8058086136113767 1 0 0
896 155 2 0.5564 -10.797655420224826 -0.6339412318724157 -6.882086910096985 0 0 0
549 39 2 0.5564 -5.48009901135806 -6.385751139959389 -7.151839680897737 0 0 0
1257 275 2 0.5564 -8.258324186651862 -1.022760292199649 -3.978819913799126 1 0 0
613 61 1 -1.1128 -5.505433952652504 -11.136716792661202 -1.490438452469243 0 0 0
1255 275 1 -1.1128 -9.064659360861874 -1.5127822696019542 -3.8177368603518067 1 0 0
548 39 2 0.5564 -4.943219877184922 -5.889185516384296 -5.826292474687304 0 0 0
1178 249 2 0.5564 -10.595453961650803 -7.625918343388494 -2.103222565581023 1 0 0
600 56 2 0.5564 -6.208062305242025 -8.209697151717121 -1.3254437557379022 1 0 0
1256 275 2 0.5564 -9.628914742924374 -0.8986528880692731 -3.3479669189206738 1 0 0
615 61 2 0.5564 -5.932154028930265 -10.387778733508142 -1.0742251361168718 0 0 0
899 156 2 0.5564 -6.00788187681982 -0.5064723127919475 -6.604729603871857 0 0 0
1179 249 2 0.5564 -9.777876088523424 -6.643619241846071 -2.914741709248349 1 0 0
1177 249 1 -1.1128 -10.65343149695172 -7.024197035780813 -2.8453833025193687 1 0 0
981 183 2 0.5564 -6.308108499046589 -6.2186769184472706 -4.130522129985369 0 0 0
989 186 2 0.5564 -4.370569808702402 -7.683853200190808 -3.914876687025373 1 0 0
979 183 1 -1.1128 -5.361985961177233 -6.2126693877505215 -4.275553976780177 0 0 0
1315 295 1 -1.1128 -6.870588878212861 -2.4269325654004312 -0.8791047884320269 1 0 0
1316 295 2 0.5564 -7.384430191380179 -2.238964963634623 -1.6645064910973277 1 0 0
1060 210 1 -1.1128 -4.152925912557222 -2.7207417352375023 -1.6305231954290291 2 0 0
1062 210 2 0.5564 -4.985097690872701 -2.369435732122389 -1.3138307376030025 2 0 0
543 37 2 0.5564 -11.655186615272903 -11.256200820257085 -6.61055503155064 0 0 0
1146 238 2 0.5564 -9.453393588790671 -10.736900466845643 -3.5132526766984626 1 0 0
1085 218 2 0.5564 -8.210919353239753 -4.451692593304417 -0.6185500520202685 1 0 0
483 17 2 0.5564 -4.10250395026121 -10.63016365113118 -6.603757084615866 0 0 0
1144 238 1 -1.1128 -8.846467458841005 -11.038087062697493 -2.8371247278283436 1 0 0
598 56 1 -1.1128 -6.213865539093409 -8.147460233251799 -0.3702867697828063 1 0 0
575 48 2 0.5564 -4.695080115992572 -4.542769515255987 -1.9393897447622248 1 -1 0
980 183 2 0.5564 -5.013337743025532 -5.6771424016325325 -3.562887508909175 0 0 0
1304 291 2 0.5564 -10.071223255572919 -11.90610060314203 -0.9636715038876433 1 1 0
33 0 5 0 -4.797167356463107 -12.008197488575416 -13.07089566161956 0 0 0
1086 218 2 0.5564 -9.33433115354286 -4.399223121354958 -1.6320037242778394 1 0 0
1084 218 1 -1.1128 -9.14491388988558 -4.260402877847883 -0.7040605022492006 1 0 0
1317 295 2 0.5564 -7.004990803709279 -1.6644892399854343 -0.31621258336204267 1 0 0
796 122 1 -1.1128 3.9958816419095764 -0.3901574963129282 -1.0438701151987353 0 0 0
541 37 1 -1.1128 -11.105234997522002 -12.038560835139242 -6.569471642438328 0 0 0
965 178 2 0.5564 -4.327497708540947 -2.8813872247012173 -6.884503762411761 0 0 0
1061 210 2 0.5564 -3.548754844347612 -2.6045236802245437 -0.8972322828412662 2 0 0
854 141 2 0.5564 -10.544820204277316 -2.019354005545487 -0.4731227554299225 1 0 0
1145 238 2 0.5564 -8.10840901338245 -11.405417951060574 -3.323523639540729 1 0 0
872 147 2 0.5564 1.5104828218291624 -11.716051369821095 -3.104690189941677 1 0 0
778 116 1 -1.1128 4.845921672479603 -11.409898089296094 -3.421507611398439 0 0 0
1425 331 2 0.5564 1.618219885269779 -7.876109438478721 -0.2595057863261417 0 0 0
628 66 1 -1.1128 -6.848407628268187 -5.585291686898645 -0.0562810131483921 0 0 0
1137 235 2 0.5564 5.553680070916415 -5.669233725387039 -4.38959568843133 0 0 0
860 143 2 0.5564 -10.733962627618713 -8.633126937336998 -3.660763609112935 2 0 0
96 0 5 0 9.30441472771895 -10.143097681843074 -9.124803704020367 0 0 0
984 184 2 0.5564 -11.96613463119046 -2.6323327247981756 -6.596669173734112 0 0 0
861 143 2 0.5564 -11.25465150742412 -9.434812806187024 -4.834679967070182 2 0 0
859 143 1 -1.1128 -10.870102912252696 -9.530959363557397 -3.9634118345948925 2 0 0
574 48 1 -1.1128 -4.695673428644806 -5.499024358881323 -1.8968642968276903 1 -1 0
970 180 1 -1.1128 11.298436067782896 -1.9917364789389873 -3.914445825117076 1 0 0
630 66 2 0.5564 -6.004479634807389 -5.407060373956256 -0.47132775941091204 0 0 0
41 0 5 0 3.226635587377383 -12.03965441016203 -12.996660075300865 0 0 0
777 115 2 0.5564 -11.899768060745949 -0.39238304553482073 -3.6424028082824624 1 0 0
871 147 1 -1.1128 2.167504173469408 -12.050690618663856 -3.71506967681549 1 0 0
1022 197 2 0.5564 9.253087838201452 -11.748004725541435 -1.063105946815655 0 1 0
676 82 1 -1.1128 6.807328745041339 -2.4152706527352255 -0.05392371050692454 0 0 0
779 116 2 0.5564 5.011752817878841 -10.473466050678056 -3.3127424691348395 0 0 0
901 157 1 -1.1128 -2.6011030976247973 -0.13109806334031987 -6.394851483149894 0 0 0
527 32 2 0.5564 -3.1601800775650806 -12.100338235617173 -5.759836740174543 0 0 0
495 21 2 0.5564 9.983817154400983 -4.723939571674074 -6.9876851257011285 0 0 0
95 0 5 0 7.2594157339426975 -12.115453787158321 -8.906864991561624 0 0 0
576 48 2 0.5564 -3.8496508748248024 -5.722508541480583 -1.5088645922556045 1 -1 0
37 0 5 0 -0.8544917145475376 -12.08662110435777 -13.025039989455996 0 0 0
25 0 5 0 11.354336882542627 -12.065972758315409 -13.22116670389218 -1 0 0
1223 264 2 0.5564 8.422616174129397 -1.9521830414284744 -0.53749963125652 1 0 0
91 0 5 0 -0.7836756046456241 -11.993984040338272 -9.000770822760538 0 0 0
447 5 2 0.5564 1.6441310447417896 -10.940396570890185 -6.911257470475627 0 0 0
70 0 5 0 9.409372252511767 -6.014329921288169 -13.03831979956367 0 0 0
990 186 2 0.5564 -3.100299194661449 -8.504198717334528 -3.841746843615134 1 0 0
518 29 2 0.5564 8.806361328846245 -11.643649560475117 -5.745271203684129 -1 0 0
467 12 2 0.5564 4.399971642024698 -7.041365702982895 -6.737012008102587 0 0 0
1076 215 2 0.5564 -1.5828013863168182 -5.025649515367472 -0.7975779853119405 1 0 0
1251 273 2 0.5564 8.531672868703655 -11.761134717829817 -3.2243141025076247 1 0 0
39 0 5 0 1.2618231136956153 -12.052149778576869 -10.993746641290022 0 0 0
93 0 5 0 3.270230349244579 -12.046661064773689 -8.959854251805682 0 0 0
29 0 5 0 -8.731464798661618 -12.090349473058925 -13.068423790550815 0 0 0
659 76 2 0.5564 9.239594461052251 -4.474743778464477 -4.13534666712271 0 -1 0
994 188 1 -1.1128 0.36507151098394763 -2.4852140585102327 -4.108307661874001 1 0 0
995 188 2 0.5564 1.2779638000790883 -2.721820874856955 -3.944322847492598 1 0 0
903 157 2 0.5564 -1.9810497959378066 -0.8598258079920152 -6.421875286917407 0 0 0
1211 260 2 0.5564 0.19226157924029727 -7.05876339359995 -3.1926841253570615 0 0 0
528 32 2 0.5564 -2.2294974094034177 -11.253893634663914 -6.602004586871113 0 0 0
1368 312 2 0.5564 -1.8026540231127066 -10.44179816444652 -3.5874763934473637 0 1 0
499 23 1 -1.1128 -2.7873954059981956 -4.613138045537175 -3.8588422191272005 0 -1 0
1366 312 1 -1.1128 -1.2868560833426734 -9.683713892134406 -3.8622253205759765 0 1 0
501 23 2 0.5564 -2.1628411722103613 -4.051091436277246 -3.400282518985236 0 -1 0
1367 312 2 0.5564 -0.9540859927327606 -9.92082497821971 -4.727834004711581 0 1 0
500 23 2 0.5564 -2.3882703091711996 -5.482894307437135 -3.837338397525328 0 -1 0
1054 208 1 -1.1128 2.961776535114713 -3.0283280690909327 -1.3440641778027718 1 0 0
1113 227 2 0.5564 1.736365931015837 -4.195694882429408 -4.774220284324854 1 0 0
1111 227 1 -1.1128 2.3437035493677167 -4.391358901874982 -4.060722169117838 1 0 0
978 182 2 0.5564 1.6720215646382954 -6.594690644770632 -1.4635979186122443 1 0 0
31 0 5 0 -6.806031663632359 -12.118963260711409 -11.021762870329301 0 0 0
602 57 2 0.5564 -1.7082235260551228 -7.938295077610767 -2.7336789141702647 0 0 0
601 57 1 -1.1128 -1.7420552179759854 -7.001130319249142 -2.925538470047372 0 0 0
603 57 2 0.5564 -1.872033102334404 -6.586134031973889 -2.0728281720981814 0 0 0
887 152 2 0.5564 -1.4468081938839799 -2.6248974576025277 -6.76262351647763 0 0 0
62 0 5 0 1.2545187626490004 -5.932001735586391 -12.944363046625535 0 0 0
294 0 5 0 -2.7563133681114933 -1.9261951490516391 -9.040037479776153 0 0 0
64 0 5 0 -0.7090101244988444 -5.976443877382948 -11.064145465496683 0 0 0
59 0 5 0 -2.803192220038721 -8.069783753345881 -10.986429748842912 0 0 0
232 0 5 0 -0.6567822286564453 -1.9756706212953554 -10.911480450273027 0 0 0
885 151 2 0.5564 -3.4386418169172117 -4.77328093968729 -6.76541203027178 0 0 0
889 153 1 -1.1128 1.17192227600956 -4.043615806991238 -6.625167507623096 0 0 0
883 151 1 -1.1128 -2.7704420428597536 -4.113982708495357 -6.578174558583593 0 0 0
884 151 2 0.5564 -2.6327117554276462 -4.173621308983998 -5.632813670402955 0 0 0
1058 209 2 0.5564 1.9964931417307756 -8.742576877158273 -6.284985172079428 0 0 0
530 33 2 0.5564 -1.5183588073525793 -9.096313896759465 -6.653021988166464 0 0 0
969 179 2 0.5564 -3.4309507434097553 -8.593128007883372 -6.1577424717530125 0 0 0
531 33 2 0.5564 -0.03165160929219714 -9.301947492587772 -6.454753163120697 0 0 0
551 40 2 0.5564 0.2582086058763732 -6.7685601994251625 -6.014503848337722 0 0 0
968 179 2 0.5564 -3.412844648552621 -7.304609073060056 -6.952278275958831 0 0 0
967 179 1 -1.1128 -2.846774713461923 -8.013250488493728 -6.64631805919656 0 0 0
529 33 1 -1.1128 -0.8680895636858307 -9.767267984435897 -6.445192066842778 0 0 0
550 40 1 -1.1128 -0.44779746233107814 -6.1315717933893135 -6.124253612766347 0 0 0
1059 209 2 0.5564 1.3606739555046865 -8.097448081933932 -5.071957082143056 0 0 0
1057 209 1 -1.1128 1.190699985762201 -8.320371557273772 -5.9871884043531 0 0 0
890 153 2 0.5564 0.6704302902060654 -3.2757380179584557 -6.899196997151941 0 0 0
552 40 2 0.5564 -1.1532693160769028 -6.624952731792249 -6.542710000431757 0 0 0
295 0 5 0 -0.8464906924057556 -3.990212196298583 -8.856868945792653 0 0 0
891 153 2 0.5564 0.5209345478129888 -4.741405759846933 -6.550820758137816 0 0 0
102 0 5 0 -2.8360666754705264 -5.95850784326037 -9.07111819146751 0 0 0
104 0 5 0 1.1806231869807118 -5.979066223247407 -9.010132783558815 0 0 0
103 0 5 0 -0.7473156713067165 -7.982704143733916 -8.90596557209613 0 0 0
90 0 5 0 -2.8297605709824056 -9.952779228898702 -8.902255762789348 0 0 0
92 0 5 0 1.2886752422630021 -10.005076070249643 -8.912868240341322 0 0 0
63 0 5 0 1.211254336021965 -8.053104540918305 -10.976195097156143 0 0 0
34 0 5 0 -2.777821092629635 -10.084379293136255 -13.032606307286448 0 0 0
227 0 5 0 -2.8069145191186564 -3.9119799571494918 -11.00641318781404 0 0 0
231 0 5 0 1.2809192065401087 -3.9587565851199686 -10.963188241833056 0 0 0
40 0 5 0 -0.7715499633710909 -9.995565265086281 -10.944370960050069 0 0 0
296 0 5 0 1.3202846556323542 -1.912347307575635 -8.875721240579638 0 0 0
886 152 1 -1.1128 -0.7228514817359175 -2.0148760117213627 -6.621278294859114 0 0 0
888 152 2 0.5564 -0.3916357190460941 -2.233223971810051 -5.750154034417843 0 0 0
38 0 5 0 1.0874773112899356 -10.091345431920693 -12.966723492684809 0 0 0
58 0 5 0 -2.9277423305061197 -6.013786760550373 -13.079162721647153 0 0 0
230 0 5 0 1.2371620950000857 -2.0119404447431726 -12.883982394857597 0 0 0
61 0 5 0 -0.8279688966242912 -7.953375382673603 -12.995881453866456 0 0 0
226 0 5 0 -2.769230205856969 -1.8882717262062716 -12.961471420904367 0 0 0
229 0 5 0 -0.8010554983992813 -3.9770319505175866 -13.034238447646086 0 0 0
65 0 5 0 3.224818714743719 -8.00768792176498 -13.062761403251702 0 0 0
297 0 5 0 3.312911852929504 -4.038173919703788 -8.994563696483633 0 0 0
233 0 5 0 3.305716770804 -3.959996408671996 -12.9447110842721 0 0 0
236 0 5 0 3.241680279083718 -2.025597588700792 -10.916381870692836 0 0 0
44 0 5 0 3.2739349100030632 -10.042761144025471 -11.028499150575305 0 0 0
68 0 5 0 3.2924169637752296 -5.99340110274394 -10.981429763053791 0 0 0
472 14 1 -1.1128 3.458196326248057 -9.720555675963585 -6.51868407173407 0 0 0
105 0 5 0 3.2796368816464905 -8.00430994519848 -9.090890676624069 0 0 0
490 20 1 -1.1128 3.3207273827530854 -1.8284088089716726 -6.4524813902789795 0 0 0
487 19 1 -1.1128 3.204843916151593 -5.922906869100924 -6.847104376423282 0 0 0
489 19 2 0.5564 2.3874800681126542 -5.6140192595300835 -7.237898831268078 0 0 0
1112 227 2 0.5564 3.207925149412195 -4.383263348035799 -4.472183007757839 1 0 0
1056 208 2 0.5564 3.2970774264756786 -2.131782006840607 -1.3480445113790418 1 0 0
1055 208 2 0.5564 2.6973679175519147 -3.189685298965452 -2.249757820005408 1 0 0
491 20 2 0.5564 2.6383047076557586 -2.2791462584516538 -6.949831428462546 0 0 0
996 188 2 0.5564 -0.10427077234215797 -2.785873645179114 -3.3301387286260984 1 0 0
1210 260 1 -1.1128 1.146807190878301 -7.026897348489219 -3.129090046584898 0 0 0
1212 260 2 0.5564 1.3791992582035244 -6.152958713826819 -3.4428757232524414 0 0 0
977 182 2 0.5564 2.929184907608445 -6.060055714394978 -0.8112187877496975 1 0 0
1189 253 1 -1.1128 0.0970857507223208 -10.717903361028007 -1.7625390256093179 0 0 0
1190 253 2 0.5564 0.5784139850975134 -10.06005153314589 -1.2607537573530723 0 0 0
1191 253 2 0.5564 -0.20779070305424638 -10.25072041974947 -2.5403689437624393 0 0 0
976 182 1 -1.1128 1.9815175115436314 -6.1215093874258475 -0.6912387472266379 1 0 0
1487 0 4 -1.1 -0.40296048247465105 -3.3233190404070543 -1.189214048831 1 0 0
492 20 2 0.5564 3.8866487470634237 -2.530286592102761 -6.131012970135849 0 0 0
1075 215 1 -1.1128 -2.1364778803363973 -5.798975931746138 -0.6896570123028026 1 0 0
909 159 2 0.5564 1.2884175355857383 -0.5036507668750825 -6.663641157563409 0 0 0
771 113 2 0.5564 2.994671547590555 -8.079778281233956 -2.9720911301109934 0 0 0
769 113 1 -1.1128 3.8318721268848552 -8.401600353081237 -2.637806785310228 0 0 0
43 0 5 0 5.26954807619962 -12.0475610338914 -11.028909736068536 0 0 0
612 60 2 0.5564 -0.26611646192706295 -0.9882519954978448 -1.4186400844114615 1 0 0
300 0 5 0 9.301277645824221 -2.011856960442557 -9.024361226383709 0 0 0
1222 264 1 -1.1128 9.179608355871174 -1.440936021555459 -0.8235260466485451 1 0 0
902 157 2 0.5564 -3.3625720346818295 -0.4457122023206302 -6.882095858221217 0 0 0
69 0 5 0 7.363027154603308 -8.086156058609655 -13.074483673888107 0 0 0
710 93 2 0.5564 4.574537508147455 -4.6940284293289745 -1.3778753076450851 1 0 0
466 12 1 -1.1128 5.160128349985429 -7.523751004710499 -6.411915444040973 0 0 0
488 19 2 0.5564 3.6054574400575405 -5.136825878905579 -6.475855242637112 0 0 0
474 14 2 0.5564 4.07972012127575 -9.023970817933884 -6.3072103765709056 0 0 0
473 14 2 0.5564 3.9492490500312503 -10.530467294077354 -6.380301637825614 0 0 0
1136 235 2 0.5564 6.475940441887881 -6.28960499344622 -3.3617495880165356 0 0 0
1478 0 4 -1.1 -6.820056800820775 -11.974834300844016 -5.1739403818952265 0 0 0
999 189 2 0.5564 8.065504136879106 -7.345763510789904 -0.38160689569215017 0 0 0
526 32 1 -1.1128 -2.8777407056832818 -11.955542944341188 -6.662881096233528 0 0 0
855 141 2 0.5564 -9.086522988235329 -2.1427795588171317 -0.0857857331158521 1 0 0
445 5 1 -1.1128 1.497853142995001 -11.777819571261595 -6.471299945074717 0 0 0
493 21 1 -1.1128 9.636974365462233 -3.917562654540062 -6.605986060500562 0 0 0
72 0 5 0 7.336827901041281 -6.043464812549617 -11.030152020635256 0 0 0
946 172 1 -1.1128 11.912017120158941 -2.859443171158089 -1.0497956944851619 0 0 0
1482 0 4 -1.1 7.865025514396109 -6.039458288852151 -1.9289422452053797 0 0 0
948 172 2 0.5564 11.867344481040211 -2.335418519131474 -1.8495672354688546 0 0 0
947 172 2 0.5564 11.867334833653112 -3.7659142460231703 -1.354009368158996 0 0 0
1243 271 1 -1.1128 11.955191927000739 -10.416199509365516 -1.644869845775208 0 0 0
1224 264 2 0.5564 9.935272904694195 -1.9209385978429714 -0.48468839405776476 1 0 0
942 170 2 0.5564 8.886337095350692 -6.428204614951225 -3.6905072936363372 0 0 0
1011 193 2 0.5564 10.906378408638114 -6.19056850342254 -0.4039609278412277 0 0 0
1244 271 2 0.5564 -11.871555794705122 -10.398344651916377 -2.5080855494844605 1 0 0
853 141 1 -1.1128 -9.799079575456402 -1.5078780335907254 -0.15929925390907293 1 0 0
1009 193 1 -1.1128 10.832919777079523 -5.56312456406637 -1.123093427412093 0 0 0
983 184 2 0.5564 11.492064460632669 -1.619295327619134 -5.7876992071426585 -1 0 0
1462 0 3 1.1 7.429704732440276 -4.0666883791874815 -5.9152348117366005 0 0 0
238 0 5 0 9.326321892352118 -1.9697852861457155 -13.077923593597042 0 0 0
52 0 5 0 11.382687992639813 -5.965416245839384 -11.031508048842971 -1 0 0
237 0 5 0 7.392636645465991 -3.98761146912391 -12.989757895868227 0 0 0
35 0 5 0 -2.7866069947320917 -12.03784479552759 -10.989812133706252 0 0 0
240 0 5 0 7.381622233324942 -1.9434491041485735 -11.016292896006606 0 0 0
873 147 2 0.5564 2.978472130732617 -11.61108255897116 -3.4594937475572 1 0 0
89 0 5 0 -4.679790733713415 -12.075357412993474 -9.00936842403469 0 0 0
475 15 1 -1.1128 7.011666366121477 -9.615293954427214 -6.643695912936918 -1 0 0
744 104 2 0.5564 11.12396205812702 -5.162353147557626 -2.801222552745226 0 0 0
1245 271 2 0.5564 11.065480832921804 -10.098152293895248 -1.7981084868155932 0 0 0
298 0 5 0 5.394866243835955 -2.0031208947871466 -9.01602584381297 0 0 0
67 0 5 0 5.345545096350382 -8.05389224374198 -11.111036963719185 0 0 0
743 104 2 0.5564 -11.906097448108776 -5.185518267451334 -3.7108398840224788 1 0 0
646 72 1 -1.1128 9.451635922847153 -9.707232890200372 -1.4816129076961293 0 -1 0
446 5 2 0.5564 1.7751737802221574 -11.625910529030547 -5.5678308044041644 0 0 0
962 177 2 0.5564 10.588630299783603 -6.743254237782989 -6.615733565505487 -1 0 0
71 0 5 0 9.33653246925167 -8.11364709628493 -11.06071331127422 0 0 0
770 113 2 0.5564 4.419737753482019 -7.6485805716431186 -2.6979494784821108 0 0 0
940 170 1 -1.1128 9.491412246429821 -6.742410859511861 -4.362357353796401 0 0 0
220 0 5 0 11.366360960963396 -1.9916048076975217 -11.032199134358233 -1 0 0
470 13 2 0.5564 6.604741227293025 -6.488318474531032 -6.825638994419282 0 0 0
961 177 1 -1.1128 11.350980884339107 -6.189596036452371 -6.784564118020182 -1 0 0
982 184 1 -1.1128 11.618666808967612 -1.9396007922291958 -6.680787083145005 -1 0 0
742 104 1 -1.1128 11.388549101227508 -5.035348444378584 -3.712316174774851 0 0 0
235 0 5 0 5.326445158038923 -4.036019296209733 -10.979485728511488 0 0 0
48 0 5 0 7.3188364190794575 -10.062058537862395 -11.081953294298103 0 0 0
469 13 1 -1.1128 7.4848867468475735 -6.112472830896691 -6.808194438738033 0 0 0
914 161 2 0.5564 6.583092844188278 -1.3530220484087598 -6.552501771952702 0 0 0
1095 221 2 0.5564 6.552738978533629 -8.324662559296359 -3.731620578117164 0 1 0
289 0 5 0 11.441800653996001 -4.056368499095345 -8.976019053179348 -1 0 0
677 82 2 0.5564 6.272437126054342 -2.5009376448565934 -0.8430859047576058 0 0 0
972 180 2 0.5564 10.346392918250217 -1.9411576338261718 -3.829159608960099 1 0 0
107 0 5 0 7.356575126711008 -8.071360892081845 -9.05769919530785 0 0 0
709 93 1 -1.1128 4.774338552449437 -5.61848061959843 -1.230582198274554 1 0 0
963 177 2 0.5564 12.102213518979433 -6.7482766265908625 -6.585140874634147 -1 0 0
1477 0 4 -1.1 5.039770645096636 -4.000476449190979 -5.346394140499603 0 0 0
49 0 5 0 11.459483348932592 -8.010303781306837 -13.165269684856229 -1 0 0
217 0 5 0 11.407845538300293 -4.012320760414326 -13.11935271639547 -1 0 0
433 1 1 -1.1128 9.222230709126377 -8.149430630384941 -6.645700146889992 -1 0 0
1250 273 2 0.5564 7.610719548663003 -10.70010291356199 -3.788181975360436 1 0 0
106 0 5 0 5.369191172059837 -6.072929902131097 -9.06535706467501 0 0 0
1135 235 1 -1.1128 5.808500538928274 -6.510752659598118 -4.011258163987985 0 0 0
234 0 5 0 5.381464831471561 -2.014757492844888 -12.896670201990698 0 0 0
476 15 2 0.5564 6.296318094537952 -9.149437095336538 -7.076677997806351 -1 0 0
94 0 5 0 5.345196009633579 -10.024769531670369 -9.015512465471797 0 0 0
66 0 5 0 5.283435448471321 -6.0028727119946215 -13.044275518136363 0 0 0
299 0 5 0 7.365497838701647 -4.029118607494522 -9.001602684888827 0 0 0
108 0 5 0 9.397726968314085 -6.022072236927816 -9.121226077297228 0 0 0
761 110 2 0.5564 8.32548659437396 -1.9025691809154952 -3.540342252158669 1 -1 0
610 60 1 -1.1128 -0.2655313435235083 -0.031112749996131474 -1.4294177862722057 1 0 0
1017 195 2 0.5564 4.833314933108988 -0.6870072608761861 -6.579528391171347 0 0 0
829 133 1 -1.1128 5.612631050815239 -2.558372429346141 -2.6187503793006903 1 0 0
760 110 1 -1.1128 8.73150228397097 -1.0512493180451925 -3.3771561519515716 1 -1 0
1249 273 1 -1.1128 8.003864884040306 -11.548231849336505 -3.9939447818570413 1 0 0
1277 282 2 0.5564 3.8040588656172942 -9.214323943308354 -0.7841409205568958 0 1 0
97 0 5 0 11.27662867021109 -8.07612057219083 -9.1377455528236 -1 0 0
494 21 2 0.5564 10.317447772910391 -3.263863276715356 -6.766856598407394 0 0 0
830 133 2 0.5564 5.338457457210394 -3.037556836712351 -3.400695764023277 1 0 0
762 110 2 0.5564 8.899991587502317 -1.0423787964312863 -2.4349421933714934 1 -1 0
971 180 2 0.5564 11.493257658111077 -2.928187717567751 -3.877846949694216 1 0 0
46 0 5 0 9.294430011703218 -10.117613521174102 -13.120434075148982 0 0 0
457 9 1 -1.1128 11.429466764904223 -10.051690341298036 -6.606489283608171 -1 0 0
458 9 2 0.5564 11.180473701572756 -9.324251828976227 -7.176633750779931 -1 0 0
647 72 2 0.5564 9.109195061558767 -9.441187676477423 -0.6282771044785738 0 -1 0
648 72 2 0.5564 9.1942018934634 -9.001050052114284 -2.074288026899741 0 -1 0
28 0 5 0 11.289056872055001 -10.130523519517466 -11.153297242528494 -1 0 0
658 76 1 -1.1128 8.526889051499019 -3.881035484327024 -3.8991118617695575 0 -1 0
1093 221 1 -1.1128 6.432292007512371 -9.223180334410273 -4.038853223353585 0 1 0
941 170 2 0.5564 10.325378723307088 -6.323840817162951 -4.1489443605437275 0 0 0
913 161 1 -1.1128 7.304794110661187 -1.936202419711986 -6.7875950490014665 0 0 0
477 15 2 0.5564 6.7084233393519 -10.521420930511878 -6.587062924296166 -1 0 0
42 0 5 0 5.242949077167483 -10.110383319661592 -13.172870705315873 0 0 0
468 12 2 0.5564 5.253284065939002 -7.240232584642174 -5.502425204634531 0 0 0
711 93 2 0.5564 5.7142807672130544 -5.690280144396571 -1.3967124575727319 1 0 0
1094 221 2 0.5564 6.717376120045346 -9.204671050425326 -4.952431224591328 0 1 0
1010 193 2 0.5564 9.93134981921243 -5.655533020444803 -1.4310718095495136 0 0 0
239 0 5 0 9.366543038191919 -3.918318281150999 -11.034526019668496 0 0 0
459 9 2 0.5564 10.686246891143453 -10.653532026486763 -6.646871529789313 -1 0 0
660 76 2 0.5564 8.163827188860115 -4.2502751174091085 -3.0940822378162736 0 -1 0
915 161 2 0.5564 8.078388288256194 -1.3724671353496052 -6.788319786547577 0 0 0
471 13 2 0.5564 8.06944490558122 -6.866658174234528 -6.883945433002132 0 0 0
831 133 2 0.5564 5.308692750682373 -1.6629235005978438 -2.7671395295303687 1 0 0
434 1 2 0.5564 9.360979361613513 -8.048229887203794 -5.704031409037671 -1 0 0
435 1 2 0.5564 8.487129669632298 -8.758464404166281 -6.715881282553528 -1 0 0
1163 244 2 0.5564 -1.9474161830749612 -11.161605498493836 -0.47181643179484783 1 0 0
614 61 2 0.5564 -4.948020438948852 -11.506386296599501 -0.8056928359216546 0 0 0
1204 258 1 -1.1128 -3.3905818658917397 -8.495377440925711 -0.08556161125128531 2 0 0
599 56 2 0.5564 -6.514796571320779 -7.256937286749938 -0.18963795049412238 1 0 0
27 0 5 0 -10.79503111544861 -12.049889475812012 -11.085000905643442 0 0 0
869 146 2 0.5564 7.181004204751861 -0.02691770387808034 -3.823926863868205 1 0 0
464 11 2 0.5564 5.194847391003778 -11.743448236029185 -5.303760521335347 0 0 0
780 116 2 0.5564 5.503378150247455 -11.835545058263511 -2.871215360323061 0 0 0
45 0 5 0 7.226613681511785 -12.03224883526629 -13.116555463821653 0 0 0
1044 204 2 0.5564 1.813634962576069 -0.3396780790091448 -3.7232703823734665 0 0 0
85 0 5 0 11.364549881893502 -12.01076232835378 -9.153392115675151 -1 0 0
257 0 5 0 3.3446010609108408 -0.15833674857354021 -12.974979598535567 0 0 0