LAMMPS (2 Aug 2023 - Update 1)
# LAMMPS input script by Simon Gravelle
# This input is part of a tutorial from https://lammpstutorials.github.io
# Last tested using the 2Aug2023 stable LAMMPS version
# This file was released under the GNU general public license v3.0

# ⣿⣿⡆⠀⠀⠀⠀⠀⠀⣾⣿⣿⣆⠀⠀⠀⣿⣿⣿⣆⠀⠀⣰⣿⣿⣷⠀⢸⣿⣿⣷⡀⠀⢀⣾⣿⣿⠀⠀⣿⣿⣿⣿⣿⣷⣆⠀⢀⣶⣿⠿⠿⣿⡆⠀⠀⠀⠀⠀⠀⠀⠀⠀⢀⣀⣠⣤⣶⣿⣿⣿⣦⡄⠀⠀⠀⠀⠀⠀⠀
# ⣿⣿⡇⠀⠀⠀⠀⠀⣼⣿⡏⣿⣿⡄⠀⠀⣿⣿⡿⣿⡆⢰⣿⢿⣿⣿⠀⢸⣿⣿⢿⣧⠀⣾⡿⣿⣿⠀⠀⣿⣿⡇⠀⢈⣿⣿⠀⢸⣿⣧⣄⣀⡀⠀⠀⠀⠀⠀⠀⠀⢀⣤⣾⣿⣿⠏⣿⣿⣿⣿⣿⣿⣿⡄⠀⠀⠀⠀⠀⠀
# ⣿⣿⡇⠀⠀⠀⠀⢰⣿⣿⣀⣸⣿⣷⡀⠀⣿⣿⡇⢻⣿⣿⡏⢸⣿⣿⠀⢸⣿⣿⠘⣿⣿⡿⠁⣿⣿⠀⠀⣿⣿⡿⠿⠿⠿⠋⠀⠀⠉⠛⠻⠿⣿⣷⠀⠀⠀⠀⠀⢠⣿⣿⣿⣿⣿⡄⠻⣿⣿⣿⣿⡿⠟⣃⠀⠀⠀⠀⠀⠀
# ⣿⣿⣧⣤⣤⣤⢠⣿⣿⠛⠛⠛⢻⣿⣧⠀⣿⣿⡇⠀⠛⠛⠀⢸⣿⣿⠀⢸⣿⣿⠀⠘⠛⠃⠀⣿⣿⠀⠀⣿⣿⡇⠀⠀⠀⠀⠀⢰⣶⣤⣤⣤⣿⡿⠀⠀⠀⠀⠀⣻⣿⣿⣿⣿⣿⣿⣄⡀⠉⠉⠁⠀⢠⣿⡄⠀⠀⠀⠀⠀
# ⠉⠉⠉⠉⠉⠉⠈⠉⠁⠀⠀⠀⠀⠉⠉⠀⠉⠉⠁⠀⠀⠀⠀⠈⠉⠉⠀⠈⠉⠉⠀⠀⠀⠀⠀⠉⠉⠀⠀⠉⠉⠁⠀⠀⠀⠀⠀⠀⠉⠉⠉⠉⠉⠀⠀⠀⠀⠀⠀⣿⣿⣿⣿⣿⣿⣿⣿⣿⣷⣶⣶⣾⣿⣿⡇⠀⠀⠀⠀⠀
# ⢀⣤⠀⠀⠀⠀⠀⠀⠀⠀⠀⠀⣤⡀⠀⠀⠀⠀⠀⠀⠀⠀⠀⠀⠀⠀⠀⢰⣶⠀⠀⠀⠀⠀⠀⠀⠀⢰⡆⠀⠀⠀⠀⠀⠀⠀⠀⠀⠀⠀⠀⠀⠀⠀⠀⠀⠀⠀⠀⠘⣿⣿⣿⣿⣿⣿⣿⣿⣿⣿⣿⣿⣿⣿⡃⠀⠀⠀⠀⠀
# ⣼⣿⣴⡦⠀⣴⠀⠀⠀⣴⡄⢤⣿⣧⣶⠄⢀⣤⡶⣶⣄⠀⠀⣴⣤⣴⣦⢠⣦⠀⠀⣤⠶⢶⣤⡀⠀⢸⡇⠀⢠⣴⠶⢦⡄⠀⠀⠀⠀⠀⠀⠀⠀⠀⠀⠀⠀⠀⠀⢀⣼⣿⣿⣿⣿⣿⣿⣿⣿⣿⣿⣿⣿⣿⣿⣶⣄⠀⠀⠀
# ⢸⣿⠀⠀⠀⣿⠀⠀⠀⣿⡇⠀⣿⡆⠀⠀⣿⠇⠀⠀⢻⡇⠀⣿⡇⠀⠀⢸⣿⠀⠀⣠⣤⣤⣽⡇⠀⢸⡇⠀⢻⣧⣄⣀⠀⠀⠀⠀⠀⠀⠀⠀⠀⠀⠀⠀⣀⣀⣀⣾⣿⣿⣿⣿⣿⣿⣿⣿⣿⣿⣿⣿⣿⣿⣿⣿⣿⣧⡀⠀
# ⠸⣿⠀⠀⠀⣿⡄⠀⢀⣿⡇⠀⣿⡇⠀⠀⢿⣇⠀⢀⣼⡇⠀⣿⡇⠀⠀⢸⣿⠀⢸⣏⠀⠀⣼⡇⠀⢸⡇⠀⡀⠀⠉⢹⣷⠀⠀⠀⠀⠀⠀⠀⣀⣴⣾⣿⣿⡟⢸⣿⣿⣿⣿⣿⣿⣿⣿⣿⣿⣿⣿⣿⣿⣿⣿⣿⣿⣿⣷⠀
# ⠀⠙⠛⠛⠀⠈⠛⠛⠋⠛⠁⠀⠈⠛⠛⠃⠈⠛⠛⠛⠋⠀⠀⠛⠃⠀⠀⠘⠛⠀⠈⠛⠛⠛⠙⠃⠀⠘⠃⠀⠙⠛⠛⠛⠁⠀⠀⠀⠀⠀⢠⣾⣿⣿⣿⣿⣿⠀⣼⣿⣿⣿⣿⣿⣿⣿⣿⣿⣿⣿⣿⣿⣿⣿⣿⣿⣿⣿⣿⡇
# ⠀⠀⠀⠀⠀⠀⠀⠀⠀⠀⠀⠀⠀⠀⠀⠀⠀⠀⠀⠀⠀⠀⠀⠀⠀⠀⠀⠀⠀⠀⠀⠀⠀⠀⠀⠀⠀⠀⠀⠀⠀⠀⠀⠀⠀⠀⠀⠀⣠⣴⣿⣿⣿⣿⣿⣿⣿⡀⣿⣿⣿⣿⣿⣿⣿⣿⣿⣿⣿⣿⣿⣿⣿⣿⣿⣿⣿⣿⣿⣿
#⠀ ⠀⠀⠀⠀⠀⠀⠀⠀⠀⠀⠀⠀⠀⠀⠀⠀⠀⠀⠀⠀⠀⠀⠀⠀⠀⠀⠀⠀⠀⠀⠀⠀⠀⠀⠀⠀⠀⠀⠀⠀⠀⠀⠀⠀⠀⠀⢰⣿⣿⣿⣿⣿⣿⣿⣿⣿⡇⢻⣿⣿⣿⣿⣿⣿⣿⣿⣿⣿⣿⣿⣿⣿⣿⣿⣿⣿⣿⣿⡏
# ⠀⠀⠀⠀⠀⠀⠀⠀⠀⠀⠀⠀⠀⠀⠀⠀⠀⠀⠀⠀⠀⠀⠀⠀⠀⠀⠀⠀⠀⠀⠀⠀⠀⠀⠀⠀⠀⠀⠀⠀⠀⠀⠀⠀⠀⠀⠀⠸⣿⣿⣿⣿⣿⣿⣿⣿⣿⣿⡘⣿⣿⣿⣿⣿⡏⣼⣿⣿⣿⣿⣿⣿⣿⣿⣿⣿⣿⣿⣿⠁
# ⠀⠀⠀⠀⠀⠀⠀⠀⠀⠀⠀⠀⠀⠀⠀⠀⠀⠀⠀⠀⠀⠀⠀⠀⠀⠀⠀⠀⠀⠀⠀⠀⠀⠀⠀⠀⠀⠀⠀⠀⠀⠀⠀⠀⠀⠀⠀⠀⠨⣿⣿⣿⣿⣿⣿⣿⣿⣿⣷⡈⠻⣿⣿⣿⣇⠸⣿⣿⣿⣿⣿⣿⡿⢻⣿⣿⠿⠋⠁⠀
# ⠀⠀⠀⠀⠀⠀⠀⠀⠀⠀⠀⠀⠀⠀⠀⠀⠀⠀⠀⠀⠀⠀⠀⠀⠀⠀⠀⠀⠀⠀⠀⠀⠀⠀⠀⠀⠀⠀⠀⠀⠀⠀⠀⠀⠀⠀⠀⠀⠀⢻⣿⣿⣿⣿⣿⣿⣿⣿⣿⣷⡀⠈⠻⢿⣿⣦⣈⠙⠛⠛⠛⣁⣴⡿⠛⠁⠀⠀⠀⠀
# ⠀⠀⠀⠀⠀⠀⠀⠀⠀⠀⠀⠀⠀⠀⠀⠀⠀⠀⠀⠀⠀⠀⠀⠀⠀⠀⠀⠀⠀⠀⠀⠀⠀⠀⠀⠀⠀⠀⠀⠀⠀⠀⠀⠀⠀⠀⠀⠀⠀⠀⠻⣿⣿⣿⣿⣿⣿⣿⣿⣿⣿⣦⡀⠀⠈⠉⠛⠛⠓⠚⠋⠉⠁⠀⠀⠀⠀⠀⠀⠀
# ⠀⠀⠀⠀⠀⠀⠀⠀⠀⠀⠀⠀⠀⠀⠀⠀⠀⠀⠀⠀⠀⠀⠀⠀⠀⠀⠀⠀⠀⠀⠀⠀⠀⠀⠀⠀⠀⠀⠀⠀⠀⠀⠀⠀⠀⠀⠀⠀⠀⠀⠀⠀⠙⠻⠿⣿⣿⣿⣿⡿⠟⠋⠀

units real
atom_style full

read_data ../RelaxSilica/silica-relaxed.data
Reading data file ...
  orthogonal box = (-3.5240585 2.3163583 1.3959543) to (24.109636 18.269219 19.189623)
  2 by 1 by 2 MPI processor grid
  reading atoms ...
  576 atoms
  reading velocities ...
  576 velocities
Finding 1-2 1-3 1-4 neighbors ...
  special bond factors lj:    0        0        0       
  special bond factors coul:  0        0        0       
     0 = max # of 1-2 neighbors
     0 = max # of 1-3 neighbors
     0 = max # of 1-4 neighbors
     1 = max # of special neighbors
  special bonds CPU = 0.000 seconds
  read_data CPU = 0.010 seconds

mass 1 28.0855 # Si
mass 2 15.999 # O

pair_style reaxff NULL safezone 3.0 mincap 150
pair_coeff * * ../RelaxSilica/reaxCHOFe.ff Si O
WARNING: Van der Waals parameters for element SI indicate inner wall+shielding, but earlier atoms indicate a different van der Waals method. This may cause division-by-zero errors. Keeping van der Waals setting for earlier atoms. (../reaxff_ffield.cpp:251)
WARNING: Van der Waals parameters for element AL indicate inner wall+shielding, but earlier atoms indicate a different van der Waals method. This may cause division-by-zero errors. Keeping van der Waals setting for earlier atoms. (../reaxff_ffield.cpp:251)
WARNING: Changed valency_val to valency_boc for X (../reaxff_ffield.cpp:296)
fix myqeq all qeq/reaxff 1 0.0 10.0 1.0e-6 reaxff maxiter 400

# no need then
# neighbor 0.5 bin
# neigh_modify every 5 delay 0 check yes

group grpSi type 1
192 atoms in group grpSi
group grpO type 2
384 atoms in group grpO
variable totqSi equal charge(grpSi)
variable totqO equal charge(grpO)
variable nSi equal count(grpSi)
variable nO equal count(grpO)
variable qSi equal v_totqSi/${nSi}
variable qSi equal v_totqSi/192
variable qO equal v_totqO/${nO}
variable qO equal v_totqO/384

dump dmp all custom 100 dump.lammpstrj id type q x y z
thermo 5
thermo_style custom step temp etotal press vol v_qSi v_qO
fix myspec all reaxff/species 5 1 5 species.log element Si O
WARNING: Resetting reneighboring criteria to 'delay 0 every 5 check no' due to fix reaxff/species averaging of bond data (../fix_reaxff_species.cpp:123)

fix mynvt all nvt temp 300.0 300.0 100
timestep 0.5

run 5000

CITE-CITE-CITE-CITE-CITE-CITE-CITE-CITE-CITE-CITE-CITE-CITE-CITE

Your simulation uses code contributions which should be cited:

- pair reaxff command: doi:10.1016/j.parco.2011.08.005

@Article{Aktulga12,
 author = {H. M. Aktulga and J. C. Fogarty and S. A. Pandit and A. Y. Grama},
 title = {Parallel Reactive Molecular Dynamics: {N}umerical Methods and Algorithmic Techniques},
 journal = {Parallel Computing},
 year =    2012,
 volume =  38,
 number =  {4--5},
 pages =   {245--259}
}

- fix qeq/reaxff command: doi:10.1016/j.parco.2011.08.005

@Article{Aktulga12,
 author = {H. M. Aktulga and J. C. Fogarty and S. A. Pandit and A. Y. Grama},
 title = {Parallel Reactive Molecular Dynamics: {N}umerical Methods and Algorithmic Techniques},
 journal = {Parallel Computing},
 year =    2012,
 volume =  38,
 pages =   {245--259}
}

CITE-CITE-CITE-CITE-CITE-CITE-CITE-CITE-CITE-CITE-CITE-CITE-CITE

Neighbor list info ...
  update: every = 5 steps, delay = 0 steps, check = no
  max neighbors/atom: 2000, page size: 100000
  master list distance cutoff = 12
  ghost atom cutoff = 12
  binsize = 6, bins = 5 3 3
  2 neighbor lists, perpetual/occasional/extra = 2 0 0
  (1) pair reaxff, perpetual
      attributes: half, newton off, ghost
      pair build: half/bin/newtoff/ghost
      stencil: full/ghost/bin/3d
      bin: standard
  (2) fix qeq/reaxff, perpetual, copy from (1)
      attributes: half, newton off
      pair build: copy
      stencil: none
      bin: none
Per MPI rank memory allocation (min/avg/max) = 146.9 | 148.1 | 149 Mbytes
   Step          Temp          TotEng         Press          Volume         v_qSi           v_qO     
         0   283.89319     -85803.443     -820.88292      7844.0987      1.8725229     -0.93626145   
         5   282.3662      -85803.806      792.34656      7844.0987      1.8732534     -0.93662668   
        10   284.99483     -85803.596      4430.8983      7844.0987      1.8735653     -0.93678263   
        15   293.66225     -85803.644     -2659.7857      7844.0987      1.8735142     -0.93675709   
        20   300.1045      -85803.656     -639.94177      7844.0987      1.8733501     -0.93667504   
        25   299.24718     -85803.45      -321.74642      7844.0987      1.8731564     -0.93657821   
        30   297.76641     -85803.569     -1230.437       7844.0987      1.8726953     -0.93634765   
        35   295.64149     -85802.992     -89.226816      7844.0987      1.8720533     -0.93602664   
        40   305.29884     -85802.808     -3125.951       7844.0987      1.8713571     -0.93567857   
        45   304.74548     -85802.298     -2650.4707      7844.0987      1.8704336     -0.93521679   
        50   305.95533     -85802.27       275.6268       7844.0987      1.8696078     -0.9348039    
        55   304.29515     -85801.953     -3177.811       7844.0987      1.8689211     -0.93446055   
        60   297.99236     -85801.704      3613.2193      7844.0987      1.8684371     -0.93421856   
        65   297.53023     -85801.369     -2260.7971      7844.0987      1.8681268     -0.93406339   
        70   295.84175     -85801.444     -172.41434      7844.0987      1.8678829     -0.93394145   
        75   290.3857      -85801.423      110.73724      7844.0987      1.8677469     -0.93387345   
        80   282.96718     -85801.05      -2964.9067      7844.0987      1.867778      -0.93388899   
        85   283.91698     -85800.858     -4007.2693      7844.0987      1.8676777     -0.93383887   
        90   286.26398     -85800.699     -1316.1404      7844.0987      1.8674232     -0.93371158   
        95   289.61994     -85800.394     -1895.4045      7844.0987      1.8671621     -0.93358107   
       100   288.06044     -85800.354      4874.2996      7844.0987      1.867024      -0.933512     
       105   289.7872      -85799.905      734.56733      7844.0987      1.8671137     -0.93355684   
       110   286.47197     -85799.443     -605.70714      7844.0987      1.8671962     -0.9335981    
       115   296.41809     -85799.165     -4197.4191      7844.0987      1.8669491     -0.93347455   
       120   296.65782     -85798.82      -879.99438      7844.0987      1.8662551     -0.93312757   
       125   295.76241     -85798.167     -2096.9258      7844.0987      1.8653091     -0.93265455   
       130   290.2295      -85797.266      2505.3818      7844.0987      1.8640492     -0.93202459   
       135   294.81341     -85796.653     -4282.0412      7844.0987      1.8627649     -0.93138247   
       140   292.33836     -85796.03      -5247.3671      7844.0987      1.8612531     -0.93062653   
       145   295.94329     -85795.267     -3417.7239      7844.0987      1.8593609     -0.92968046   
       150   293.87021     -85794.104     -5321.0695      7844.0987      1.8574173     -0.92870867   
       155   291.18894     -85793.017     -1575.9255      7844.0987      1.8556158     -0.9278079    
       160   294.79569     -85792.375     -3494.6749      7844.0987      1.8544647     -0.92723234   
       165   291.32853     -85791.654     -2131.115       7844.0987      1.8536852     -0.92684258   
       170   291.32384     -85790.845     -657.69158      7844.0987      1.8533505     -0.92667526   
       175   294.23243     -85790.501     -7724.4525      7844.0987      1.8534728     -0.92673641   
       180   294.03998     -85789.8       -5939.4667      7844.0987      1.8539235     -0.92696173   
       185   298.6437      -85789.693     -7740.4776      7844.0987      1.8549244     -0.92746218   
       190   296.94128     -85789.316     -3218.228       7844.0987      1.8564457     -0.92822284   
       195   293.86166     -85788.831     -2745.1771      7844.0987      1.8582275     -0.92911374   
       200   295.79918     -85788.669     -3711.371       7844.0987      1.8602203     -0.93011015   
       205   296.86786     -85788.806     -902.60569      7844.0987      1.8624673     -0.93123364   
       210   294.69541     -85788.385      7468.926       7844.0987      1.8650261     -0.93251303   
       215   297.21778     -85788.478     -1771.789       7844.0987      1.8675466     -0.93377329   
       220   301.85319     -85788.308     -859.0194       7844.0987      1.8700249     -0.93501245   
       225   307.55948     -85788.197     -3040.068       7844.0987      1.8723119     -0.93615593   
       230   307.56758     -85787.746      1022.093       7844.0987      1.8743129     -0.93715645   
       235   301.58335     -85787.565      6157.5115      7844.0987      1.8761833     -0.93809166   
       240   297.06461     -85786.757     -10.329413      7844.0987      1.8776903     -0.93884513   
       245   298.90087     -85786.004     -2690.4624      7844.0987      1.8783649     -0.93918243   
       250   300.58827     -85785.175      6332.792       7844.0987      1.8781926     -0.93909628   
       255   304.25473     -85784.279      7044.8019      7844.0987      1.8777386     -0.93886928   
       260   302.15092     -85783.215      4405.9874      7844.0987      1.8771151     -0.93855754   
       265   293.86007     -85781.737      1135.5249      7844.0987      1.876048      -0.93802402   
       270   298.46699     -85780.649     -1067.0561      7844.0987      1.8746337     -0.93731684   
       275   297.31113     -85779.159     -1540.3563      7844.0987      1.8729244     -0.93646221   
       280   297.68823     -85777.754     -300.23778      7844.0987      1.8714748     -0.93573739   
       285   294.75295     -85776.42      -2711.9781      7844.0987      1.8704204     -0.9352102    
       290   293.15994     -85775.202     -1845.5479      7844.0987      1.8692502     -0.93462509   
       295   292.39528     -85773.781      36.542807      7844.0987      1.868381      -0.93419048   
       300   295.9098      -85772.602     -4448.7299      7844.0987      1.8679322     -0.93396612   
       305   294.25543     -85770.656     -2144.986       7844.0987      1.8671784     -0.93358918   
       310   307.90683     -85769.719     -1548.1054      7844.0987      1.8662494     -0.93312468   
       315   312.41474     -85768.574      4612.7804      7844.0987      1.8655866     -0.93279332   
       320   305.20957     -85766.992     -2645.9683      7844.0987      1.8650474     -0.93252369   
       325   300.50045     -85765.509     -3349.9631      7844.0987      1.8643897     -0.93219487   
       330   298.1531      -85764.244     -487.30196      7844.0987      1.8636545     -0.93182725   
       335   294.48864     -85762.794     -1390.4551      7844.0987      1.8629362     -0.93146809   
       340   294.13025     -85761.543     -6874.9634      7844.0987      1.8622542     -0.93112709   
       345   290.64189     -85760.318     -3646.4739      7844.0987      1.8618622     -0.93093111   
       350   288.8338      -85758.931     -1620.9006      7844.0987      1.8618168     -0.9309084    
       355   292.34525     -85757.62      -1565.7088      7844.0987      1.8620038     -0.93100188   
       360   303.55934     -85756.667     -1574.2597      7844.0987      1.8621243     -0.93106213   
       365   305.99609     -85755.387     -5872.6798      7844.0987      1.8625546     -0.93127729   
       370   304.80507     -85754.21      -5235.4592      7844.0987      1.8631239     -0.93156193   
       375   306.35059     -85753.077     -3737.3256      7844.0987      1.8634457     -0.93172285   
       380   305.96329     -85751.807     -1678.0166      7844.0987      1.8634771     -0.93173854   
       385   309.91193     -85750.732     -3326.7695      7844.0987      1.8632822     -0.9316411    
       390   296.43841     -85749.269     -2995.5518      7844.0987      1.86315       -0.93157499   
       395   293.42898     -85748.257     -5058.3274      7844.0987      1.8632379     -0.93161893   
       400   293.18342     -85747.417     -3399.129       7844.0987      1.8633792     -0.93168961   
       405   299.0333      -85746.298     -6526.0513      7844.0987      1.8634974     -0.93174872   
       410   307.13677     -85745.435     -3135.1786      7844.0987      1.863775      -0.93188749   
       415   304.59021     -85744.137     -1202.1144      7844.0987      1.8646309     -0.93231545   
       420   302.41089     -85743.649     -58.412823      7844.0987      1.866164      -0.93308199   
       425   298.83461     -85743.196     -4087.8739      7844.0987      1.8678615     -0.93393073   
       430   297.28658     -85742.538     -2598.3149      7844.0987      1.8693154     -0.93465772   
       435   306.14858     -85742.118     -330.61647      7844.0987      1.8704508     -0.93522538   
       440   313.39046     -85741.258      587.79289      7844.0987      1.8713268     -0.93566342   
       445   323.27156     -85740.721     -302.61302      7844.0987      1.8719706     -0.93598531   
       450   325.79443     -85740.219     -1593.5449      7844.0987      1.8724274     -0.9362137    
       455   320.03092     -85739.44      -3830.1959      7844.0987      1.8725758     -0.93628792   
       460   314.14955     -85738.815     -228.89545      7844.0987      1.8726556     -0.93632779   
       465   316.51368     -85738.416      1954.2944      7844.0987      1.8730295     -0.93651474   
       470   310.21108     -85737.803     -112.68893      7844.0987      1.8734968     -0.93674841   
       475   309.97285     -85737.739     -585.71096      7844.0987      1.874048      -0.93702401   
       480   301.6981      -85737.387      326.78729      7844.0987      1.8749468     -0.93747341   
       485   300.43232     -85737.138      465.14776      7844.0987      1.8760195     -0.93800976   
       490   300.83359     -85737.209     -276.17979      7844.0987      1.877048      -0.93852402   
       495   305.53622     -85737.25       3259.1754      7844.0987      1.8779385     -0.93896925   
       500   313.51571     -85736.964      1500.1911      7844.0987      1.8783452     -0.93917262   
       505   313.97967     -85736.48       4298.832       7844.0987      1.8786552     -0.93932761   
       510   318.99827     -85736.611      359.65154      7844.0987      1.8790192     -0.9395096    
       515   310.66249     -85736.052      1273.834       7844.0987      1.8788475     -0.93942374   
       520   315.0407      -85735.881     -523.81464      7844.0987      1.8782069     -0.93910343   
       525   321.73919     -85735.538     -1715.3386      7844.0987      1.8771677     -0.93858385   
       530   327.2312      -85734.948      5177.2261      7844.0987      1.8756682     -0.93783409   
       535   325.18874     -85734.9       -230.42336      7844.0987      1.87401       -0.93700499   
       540   308.7868      -85734.551     -266.47075      7844.0987      1.8722921     -0.93614604   
       545   304.60632     -85734.242      2647.2102      7844.0987      1.8703315     -0.93516574   
       550   300.16115     -85733.784      1740.972       7844.0987      1.8684494     -0.93422468   
       555   302.5159      -85733.15      -2393.4788      7844.0987      1.8666267     -0.93331335   
       560   303.73687     -85732.779      104.8216       7844.0987      1.864759      -0.93237951   
       565   303.54405     -85732.847     -2111.7593      7844.0987      1.863614      -0.93180701   
       570   302.88766     -85732.671     -2487.6709      7844.0987      1.8630636     -0.93153179   
       575   306.16678     -85732.69       113.77355      7844.0987      1.8632163     -0.93160814   
       580   312.98082     -85733.26      -425.76156      7844.0987      1.8641535     -0.93207677   
       585   311.62668     -85733.292     -1266.2542      7844.0987      1.8659444     -0.9329722    
       590   316.17915     -85734.238     -1507.0627      7844.0987      1.8679694     -0.93398469   
       595   319.76829     -85734.78       1912.1996      7844.0987      1.8699793     -0.93498963   
       600   322.90763     -85735.465     -2199.556       7844.0987      1.8718519     -0.93592596   
       605   322.53815     -85736.317      1913.8914      7844.0987      1.8734483     -0.93672414   
       610   325.0073      -85736.947      353.08376      7844.0987      1.8752164     -0.93760821   
       615   316.75696     -85738.017      905.29547      7844.0987      1.8772869     -0.93864347   
       620   308.77579     -85738.745      3714.9182      7844.0987      1.879263      -0.93963148   
       625   306.09936     -85739.608      4749.8223      7844.0987      1.8810008     -0.94050039   
       630   306.56061     -85740.099      3877.8922      7844.0987      1.8822131     -0.94110655   
       635   310.77274     -85740.636      1749.6253      7844.0987      1.882907      -0.94145348   
       640   308.66984     -85741.13       5843.026       7844.0987      1.883139      -0.94156949   
       645   308.40004     -85741.527      4294.2999      7844.0987      1.8833739     -0.94168697   
       650   301.20107     -85741.914     -52.977196      7844.0987      1.8830964     -0.94154822   
       655   298.77514     -85742.136     -1169.3788      7844.0987      1.8822402     -0.94112011   
       660   300.70149     -85742.354      2535.4885      7844.0987      1.8806176     -0.94030882   
       665   303.66323     -85742.114      1072.5777      7844.0987      1.8786469     -0.93932345   
       670   294.1086      -85741.854      3031.0731      7844.0987      1.87663       -0.93831501   
       675   289.6046      -85741.516     -908.27126      7844.0987      1.8739785     -0.93698925   
       680   293.88063     -85741.207     -3309.2977      7844.0987      1.8708991     -0.93544954   
       685   293.85158     -85740.616      1105.8958      7844.0987      1.8678523     -0.93392615   
       690   298.14066     -85740.436     -5097.3529      7844.0987      1.8649746     -0.93248732   
       695   299.08903     -85739.613     -1545.6063      7844.0987      1.8624435     -0.93122175   
       700   301.28661     -85739.447      1333.9704      7844.0987      1.8604659     -0.93023297   
       705   303.17501     -85739.226      237.16268      7844.0987      1.8591263     -0.92956315   
       710   305.39795     -85739.547     -4364.6546      7844.0987      1.8583127     -0.92915636   
       715   309.00686     -85739.562     -2512.1524      7844.0987      1.8580668     -0.9290334    
       720   312.67651     -85739.924     -3286.5264      7844.0987      1.8581427     -0.92907133   
       725   315.49679     -85740.358     -7977.7398      7844.0987      1.8582316     -0.92911579   
       730   318.50767     -85740.858     -4746.9999      7844.0987      1.8584019     -0.92920094   
       735   324.42237     -85741.503     -171.0514       7844.0987      1.8589477     -0.92947385   
       740   322.71187     -85742.113     -5990.673       7844.0987      1.8597143     -0.92985714   
       745   310.64588     -85742.556     -5483.6981      7844.0987      1.8604643     -0.93023215   
       750   300.57641     -85743.207     -6504.7069      7844.0987      1.8611209     -0.93056044   
       755   300.44312     -85743.793     -2019.387       7844.0987      1.8618664     -0.93093319   
       760   305.66277     -85744.469     -62.883619      7844.0987      1.8628511     -0.93142557   
       765   307.76357     -85745.291     -81.518175      7844.0987      1.8636992     -0.93184958   
       770   312.29203     -85746.432      604.7614       7844.0987      1.8650911     -0.93254557   
       775   308.89417     -85746.844     -1622.9732      7844.0987      1.866773      -0.93338652   
       780   305.1629      -85748.007     -2884.8511      7844.0987      1.8684069     -0.93420344   
       785   305.25931     -85748.817     -2238.6181      7844.0987      1.8700153     -0.93500766   
       790   306.08506     -85749.851      232.65367      7844.0987      1.8714964     -0.93574818   
       795   304.34092     -85750.588     -2054.538       7844.0987      1.8724335     -0.93621676   
       800   299.85484     -85750.814      4410.3148      7844.0987      1.8725541     -0.93627706   
       805   306.16836     -85751.397      4370.2625      7844.0987      1.872324      -0.93616202   
       810   309.38155     -85751.887     -431.93993      7844.0987      1.87172       -0.93585998   
       815   314.55735     -85752.286     -2093.3794      7844.0987      1.8706873     -0.93534364   
       820   319.57927     -85752.532     -5270.5032      7844.0987      1.8692782     -0.93463911   
       825   313.26852     -85752.669      801.70703      7844.0987      1.8680346     -0.93401731   
       830   311.65205     -85753.22       771.64611      7844.0987      1.8671503     -0.93357516   
       835   306.75785     -85753.725     -679.89599      7844.0987      1.8662049     -0.93310244   
       840   303.3586      -85753.946     -1924.4441      7844.0987      1.8653533     -0.93267663   
       845   305.77765     -85754.574     -1343.0242      7844.0987      1.8649792     -0.93248961   
       850   307.68203     -85755.256     -799.8394       7844.0987      1.8648245     -0.93241226   
       855   307.73773     -85755.778     -1991.6284      7844.0987      1.8648697     -0.93243484   
       860   306.45103     -85756.8       -2366.1828      7844.0987      1.865294      -0.93264699   
       865   306.06782     -85757.782     -1156.3705      7844.0987      1.8661607     -0.93308036   
       870   299.91887     -85758.585      2851.6854      7844.0987      1.867291      -0.93364552   
       875   303.39065     -85760.2        248.48867      7844.0987      1.8684942     -0.9342471    
       880   304.91007     -85760.753      1850.868       7844.0987      1.8698388     -0.93491939   
       885   308.01996     -85761.657      3062.7244      7844.0987      1.8713568     -0.93567841   
       890   310.81657     -85762.94      -629.87615      7844.0987      1.8732712     -0.93663561   
       895   300.99766     -85764.248      3094.3342      7844.0987      1.875479      -0.93773948   
       900   294.29408     -85765.246      2752.6393      7844.0987      1.8774512     -0.93872558   
       905   293.4245      -85766.295      49.276038      7844.0987      1.8790495     -0.93952477   
       910   300.39761     -85767.341      5704.8765      7844.0987      1.8799971     -0.93999856   
       915   306.63173     -85768.111      5048.7482      7844.0987      1.8804389     -0.94021944   
       920   308.41559     -85768.6       -2788.4351      7844.0987      1.8807641     -0.94038207   
       925   303.43685     -85769.469     -2830.0814      7844.0987      1.8807811     -0.94039057   
       930   299.89507     -85770.251      4482.9479      7844.0987      1.8801093     -0.94005465   
       935   295.36496     -85770.378      1930.0425      7844.0987      1.8789625     -0.93948127   
       940   293.8141      -85770.509      2735.3741      7844.0987      1.8774378     -0.93871891   
       945   298.89333     -85770.988      183.39154      7844.0987      1.8756698     -0.93783488   
       950   293.59167     -85770.883      1633.0219      7844.0987      1.8738857     -0.93694287   
       955   290.47727     -85771.066      365.66885      7844.0987      1.8721375     -0.93606876   
       960   283.39588     -85770.818     -2220.084       7844.0987      1.8704932     -0.93524658   
       965   285.02611     -85770.762      1266.2224      7844.0987      1.8689198     -0.93445991   
       970   295.60768     -85771.173      3195.2119      7844.0987      1.8674977     -0.93374886   
       975   306.75275     -85771.19       1107.7245      7844.0987      1.8662497     -0.93312486   
       980   307.96307     -85771.376     -2214.46        7844.0987      1.8651831     -0.93259157   
       985   308.31131     -85771.678     -2673.7403      7844.0987      1.8643466     -0.93217332   
       990   301.65767     -85772.211      1561.4354      7844.0987      1.8638332     -0.93191658   
       995   302.40069     -85772.562      266.03701      7844.0987      1.8635625     -0.93178127   
      1000   307.53044     -85773.074     -304.46891      7844.0987      1.8632781     -0.93163906   
      1005   308.9452      -85773.587     -5760.6745      7844.0987      1.8633377     -0.93166883   
      1010   311.37577     -85774.103     -5039.6537      7844.0987      1.8635056     -0.93175281   
      1015   300.26578     -85774.365     -3400.1372      7844.0987      1.8637675     -0.93188374   
      1020   294.25247     -85775.346     -3202.2414      7844.0987      1.8641341     -0.93206706   
      1025   293.82504     -85775.992     -2502.1767      7844.0987      1.8645906     -0.93229532   
      1030   293.63858     -85776.464      1793.4884      7844.0987      1.8650676     -0.9325338    
      1035   297.59727     -85777.552     -3873.0448      7844.0987      1.8658485     -0.93292423   
      1040   297.57471     -85777.935     -3085.0139      7844.0987      1.8669383     -0.93346914   
      1045   293.23617     -85778.765     -3200.3513      7844.0987      1.8686223     -0.93431115   
      1050   287.81937     -85779.476      3827.2775      7844.0987      1.8706048     -0.93530242   
      1055   293.00982     -85780.419      1006.2664      7844.0987      1.8726781     -0.93633903   
      1060   302.52751     -85781.3       -2196.4618      7844.0987      1.8747141     -0.93735707   
      1065   312.58333     -85782.277     -3587.2869      7844.0987      1.8764618     -0.93823089   
      1070   316.9625      -85783.093     -3562.3062      7844.0987      1.8778917     -0.93894586   
      1075   310.16347     -85783.679     -971.45787      7844.0987      1.8792837     -0.93964186   
      1080   305.42555     -85784.543      2025.7215      7844.0987      1.8805759     -0.94028794   
      1085   301.39912     -85785.201      1520.0384      7844.0987      1.8814206     -0.9407103    
      1090   299.81004     -85785.72       3071.8233      7844.0987      1.8821396     -0.9410698    
      1095   301.44979     -85786.355      4257.1767      7844.0987      1.8828817     -0.94144085   
      1100   297.77348     -85786.916      9321.7229      7844.0987      1.8832225     -0.94161127   
      1105   302.20055     -85787.263      2788.8983      7844.0987      1.883354      -0.94167699   
      1110   306.01892     -85787.719      4425.6074      7844.0987      1.8828815     -0.94144076   
      1115   302.90062     -85787.477      2137.8962      7844.0987      1.8818866     -0.94094328   
      1120   303.20988     -85787.929      1815.1514      7844.0987      1.8808079     -0.94040396   
      1125   297.14614     -85787.896      5526.4452      7844.0987      1.8794669     -0.93973343   
      1130   296.8831      -85788.014      155.8725       7844.0987      1.8779036     -0.9389518    
      1135   291.94645     -85788.329     -4089.9843      7844.0987      1.8760374     -0.93801872   
      1140   291.12198     -85787.706     -2131.4035      7844.0987      1.873997      -0.93699851   
      1145   294.8288      -85787.665     -907.78324      7844.0987      1.8718686     -0.93593429   
      1150   292.67197     -85787.337      2705.5075      7844.0987      1.8696347     -0.93481735   
      1155   297.59242     -85786.978     -1279.4697      7844.0987      1.8676971     -0.93384857   
      1160   303.66545     -85786.975      12.908345      7844.0987      1.8662987     -0.93314937   
      1165   304.10541     -85786.872      2649.5035      7844.0987      1.865173      -0.93258649   
      1170   306.17829     -85787.04      -3466.6854      7844.0987      1.8640766     -0.93203829   
      1175   299.27328     -85786.821      1489.9737      7844.0987      1.8628696     -0.93143481   
      1180   294.52574     -85786.93      -1100.8808      7844.0987      1.86197       -0.93098499   
      1185   289.09193     -85787.236     -3345.8011      7844.0987      1.8612214     -0.93061071   
      1190   289.27082     -85787.248     -4837.3356      7844.0987      1.8605017     -0.93025087   
      1195   293.59209     -85787.451      2360.958       7844.0987      1.8597985     -0.92989925   
      1200   296.30213     -85787.595     -5505.4052      7844.0987      1.8598261     -0.92991304   
      1205   298.43742     -85788.356     -6819.5508      7844.0987      1.8604331     -0.93021653   
      1210   300.42167     -85788.395     -9351.4843      7844.0987      1.8609964     -0.93049822   
      1215   306.26391     -85789.011     -6138.9776      7844.0987      1.8615284     -0.9307642    
      1220   307.89283     -85789.002     -1853.0343      7844.0987      1.8620885     -0.93104424   
      1225   309.73421     -85789.567     -6518.0268      7844.0987      1.8629425     -0.93147127   
      1230   302.77761     -85789.996     -3062.8208      7844.0987      1.8639966     -0.9319983    
      1235   300.45082     -85790.796     -3746.8091      7844.0987      1.8649612     -0.9324806    
      1240   297.79062     -85791.46      -3327.4128      7844.0987      1.8659114     -0.9329557    
      1245   295.53423     -85791.815      226.40416      7844.0987      1.8669062     -0.9334531    
      1250   294.5622      -85792.427     -3832.3969      7844.0987      1.868094      -0.934047     
      1255   294.92604     -85792.635     -6642.6233      7844.0987      1.8693555     -0.93467776   
      1260   300.61802     -85793.618      908.60592      7844.0987      1.8705157     -0.93525783   
      1265   298.08682     -85793.872      4618.1436      7844.0987      1.8716688     -0.93583441   
      1270   294.9709      -85794.548      3583.83        7844.0987      1.8729894     -0.93649471   
      1275   292.06295     -85795.158      180.20163      7844.0987      1.8743504     -0.93717519   
      1280   285.39418     -85795.279      838.94556      7844.0987      1.8756646     -0.93783228   
      1285   290.73723     -85795.783     -1434.5337      7844.0987      1.8766916     -0.93834578   
      1290   296.52118     -85796.127      450.79557      7844.0987      1.8774157     -0.93870784   
      1295   296.77629     -85796.387      793.81258      7844.0987      1.8775313     -0.93876567   
      1300   288.21314     -85796.007      4035.255       7844.0987      1.8771259     -0.93856296   
      1305   291.65804     -85796.221      5725.6727      7844.0987      1.8766842     -0.93834211   
      1310   287.88534     -85795.987      3457.8324      7844.0987      1.8759267     -0.93796333   
      1315   290.21474     -85795.842     -2319.8864      7844.0987      1.8748754     -0.9374377    
      1320   287.528       -85795.268      1481.1887      7844.0987      1.8735503     -0.93677515   
      1325   286.66351     -85794.854      98.004115      7844.0987      1.872071      -0.93603551   
      1330   287.87496     -85794.529     -1182.3855      7844.0987      1.8704957     -0.93524785   
      1335   290.10459     -85794.278     -4989.576       7844.0987      1.8689642     -0.93448209   
      1340   286.92671     -85794.082     -826.73806      7844.0987      1.8677152     -0.93385758   
      1345   282.20609     -85793.472      1359.6763      7844.0987      1.8668545     -0.93342726   
      1350   277.88448     -85793.06      -1904.099       7844.0987      1.8661797     -0.93308984   
      1355   278.6534      -85792.875     -3769.0031      7844.0987      1.8656561     -0.93282806   
      1360   286.77158     -85792.757     -4393.1241      7844.0987      1.8653259     -0.93266297   
      1365   287.84216     -85792.055     -5112.5873      7844.0987      1.8650109     -0.93250544   
      1370   291.29171     -85791.735     -6476.3758      7844.0987      1.8648944     -0.93244719   
      1375   300.22714     -85791.393     -5501.0603      7844.0987      1.8646974     -0.93234871   
      1380   306.18207     -85791.027      2310.0175      7844.0987      1.8646674     -0.93233371   
      1385   313.68244     -85790.894     -2684.2744      7844.0987      1.8650419     -0.93252093   
      1390   310.15326     -85790.746     -3620.3716      7844.0987      1.8656659     -0.93283293   
      1395   304.99626     -85790.786     -4153.3413      7844.0987      1.8662266     -0.93311331   
      1400   298.69282     -85790.495      1369.9783      7844.0987      1.8666661     -0.93333304   
      1405   295.24948     -85790.542     -3953.4087      7844.0987      1.8669461     -0.93347306   
      1410   294.316       -85790.302     -6748.5293      7844.0987      1.8673538     -0.93367692   
      1415   295.10481     -85790.003     -3872.7037      7844.0987      1.8677495     -0.93387475   
      1420   306.1818      -85790.364      739.81072      7844.0987      1.8680239     -0.93401197   
      1425   309.03628     -85790.003      768.92561      7844.0987      1.8683685     -0.93418423   
      1430   301.07115     -85789.562     -3642.2651      7844.0987      1.8689021     -0.93445105   
      1435   302.64087     -85789.396     -4330.0997      7844.0987      1.8693178     -0.93465888   
      1440   300.51311     -85789.065      2401.7409      7844.0987      1.8695558     -0.93477788   
      1445   302.8062      -85789.201      3440.6679      7844.0987      1.8697848     -0.9348924    
      1450   299.15484     -85789.177      1206.5619      7844.0987      1.8699877     -0.93499385   
      1455   294.20825     -85788.727     -6211.2666      7844.0987      1.8703037     -0.93515186   
      1460   281.24885     -85788.36      -5291.3165      7844.0987      1.8704569     -0.93522846   
      1465   280.25382     -85788.45       963.53956      7844.0987      1.8707711     -0.93538557   
      1470   285.14685     -85788.171     -2375.4863      7844.0987      1.8714327     -0.93571633   
      1475   290.36312     -85788.05      -1527.4444      7844.0987      1.8721882     -0.93609411   
      1480   297.90784     -85787.953      414.4592       7844.0987      1.8729077     -0.93645387   
      1485   302.07665     -85788.113      2897.8183      7844.0987      1.8735929     -0.93679647   
      1490   304.03984     -85787.504     -1164.7123      7844.0987      1.8745646     -0.93728228   
      1495   298.18425     -85787.557      1829.3939      7844.0987      1.8754575     -0.93772875   
      1500   290.05686     -85786.955      4374.619       7844.0987      1.8761605     -0.93808023   
      1505   292.78574     -85786.635     -3805.4577      7844.0987      1.8764862     -0.93824308   
      1510   299.01956     -85786.253     -1639.1141      7844.0987      1.876366      -0.938183     
      1515   298.1608      -85785.674      874.66479      7844.0987      1.8759926     -0.93799629   
      1520   297.16361     -85785.141      4063.6385      7844.0987      1.8754805     -0.93774025   
      1525   297.80291     -85784.48      -2669.8656      7844.0987      1.8747314     -0.93736571   
      1530   298.73068     -85783.835     -1982.7818      7844.0987      1.8740287     -0.93701437   
      1535   298.92151     -85783.39      -4716.7716      7844.0987      1.8734248     -0.93671239   
      1540   295.55835     -85782.48       1198.8619      7844.0987      1.8728807     -0.93644037   
      1545   293.98068     -85781.737      2223.3819      7844.0987      1.8722951     -0.93614753   
      1550   294.57097     -85781.13       1268.3482      7844.0987      1.8717673     -0.93588365   
      1555   291.98432     -85780.318     -676.15154      7844.0987      1.8715724     -0.93578619   
      1560   294.0771      -85780.094      2952.9878      7844.0987      1.8716192     -0.93580958   
      1565   287.97759     -85778.821     -1528.7563      7844.0987      1.8719235     -0.93596173   
      1570   290.76488     -85778.234     -2383.3518      7844.0987      1.8722749     -0.93613743   
      1575   299.67115     -85777.803      47.367915      7844.0987      1.8725108     -0.93625538   
      1580   303.55565     -85776.797      164.29194      7844.0987      1.8729956     -0.9364978    
      1585   299.51853     -85775.85      -581.04566      7844.0987      1.8736662     -0.93683311   
      1590   290.9882      -85774.702      3667.5077      7844.0987      1.8745048     -0.93725238   
      1595   294.83442     -85774.174      1615.5507      7844.0987      1.8750607     -0.93753037   
      1600   301.85738     -85773.094      5528.6912      7844.0987      1.8750345     -0.93751727   
      1605   300.43396     -85771.774     -400.82394      7844.0987      1.8746783     -0.93733916   
      1610   302.98751     -85770.28      -660.06507      7844.0987      1.8736962     -0.93684808   
      1615   308.47759     -85768.534     -344.49331      7844.0987      1.8722328     -0.93611642   
      1620   307.75916     -85766.46       3827.5394      7844.0987      1.8704952     -0.93524759   
      1625   315.02427     -85764.671     -2385.5371      7844.0987      1.8685639     -0.93428195   
      1630   313.71542     -85762.783     -4595.0902      7844.0987      1.8666575     -0.93332876   
      1635   305.88051     -85760.077     -1781.0313      7844.0987      1.8647466     -0.93237331   
      1640   301.844       -85757.879     -208.85984      7844.0987      1.8628296     -0.9314148    
      1645   301.61085     -85755.995      2576.9105      7844.0987      1.8612521     -0.93062606   
      1650   297.63932     -85753.837     -1233.5089      7844.0987      1.859938      -0.929969     
      1655   301.0594      -85751.084     -1368.2163      7844.0987      1.8586258     -0.92931292   
      1660   313.72425     -85749.023     -4814.9473      7844.0987      1.8570694     -0.92853468   
      1665   316.43246     -85746.72      -4730.4305      7844.0987      1.8557462     -0.92787309   
      1670   314.26398     -85744.313      990.09377      7844.0987      1.8550566     -0.92752829   
      1675   316.02202     -85741.579     -8594.974       7844.0987      1.8547294     -0.9273647    
      1680   318.24882     -85739.396     -7277.6201      7844.0987      1.8543531     -0.92717654   
      1685   317.81854     -85736.877     -2677.539       7844.0987      1.8540281     -0.92701404   
      1690   321.96344     -85734.979     -564.60251      7844.0987      1.8541435     -0.92707174   
      1695   322.19012     -85732.742     -8746.9958      7844.0987      1.8545224     -0.92726118   
      1700   315.59493     -85730.819     -9712.6599      7844.0987      1.8553754     -0.92768771   
      1705   308.29399     -85728.973     -8254.8909      7844.0987      1.8565443     -0.92827216   
      1710   305.35235     -85727.258     -970.59089      7844.0987      1.8575414     -0.92877071   
      1715   313.11389     -85726.069     -4260.1922      7844.0987      1.8586965     -0.92934826   
      1720   314.49472     -85724.865     -3454.7364      7844.0987      1.8602798     -0.93013991   
      1725   314.88707     -85723.292     -6093.5734      7844.0987      1.8620602     -0.93103012   
      1730   313.36407     -85722.012     -2872.0501      7844.0987      1.8637796     -0.9318898    
      1735   311.84462     -85720.628      2088.8641      7844.0987      1.8652082     -0.93260411   
      1740   319.15191     -85719.658     -5604.0989      7844.0987      1.8660776     -0.9330388    
      1745   324.50285     -85718.123     -6147.5758      7844.0987      1.8663947     -0.93319735   
      1750   327.18071     -85717.196     -803.77291      7844.0987      1.866562      -0.93328101   
      1755   317.38908     -85716.087      13834.59       7844.0987      1.8670517     -0.93352584   
      1760   312.65248     -85715.412     -2450.5551      7844.0987      1.8678762     -0.93393808   
      1765   306.12797     -85714.83      -79.845766      7844.0987      1.8686166     -0.93430832   
      1770   305.91028     -85714.335     -4267.1697      7844.0987      1.8690606     -0.93453029   
      1775   307.72642     -85713.5        2303.7739      7844.0987      1.8690941     -0.93454704   
      1780   307.72792     -85713.042      918.02126      7844.0987      1.8689778     -0.9344889    
      1785   306.49417     -85712.723      2677.1688      7844.0987      1.8689999     -0.93449995   
      1790   308.09285     -85711.841     -5642.4644      7844.0987      1.8689442     -0.93447211   
      1795   308.51531     -85711.345     -1031.9059      7844.0987      1.868612      -0.93430601   
      1800   311.81248     -85710.91      -456.76031      7844.0987      1.8682992     -0.9341496    
      1805   316.14084     -85710.225      4083.9427      7844.0987      1.8679976     -0.93399882   
      1810   316.68689     -85709.623      2495.6653      7844.0987      1.8677142     -0.93385712   
      1815   320.13114     -85709.589     -2319.5642      7844.0987      1.8677435     -0.93387174   
      1820   323.32117     -85709.368     -3910.2309      7844.0987      1.8677947     -0.93389736   
      1825   328.4505      -85709.221     -3667.6727      7844.0987      1.8676847     -0.93384235   
      1830   329.67823     -85709.05       815.20476      7844.0987      1.8676427     -0.93382134   
      1835   325.42883     -85708.964      1789.8801      7844.0987      1.8677696     -0.93388479   
      1840   323.9905      -85709.085     -894.02902      7844.0987      1.8683297     -0.93416483   
      1845   320.30633     -85709.524      1249.7431      7844.0987      1.8687536     -0.93437678   
      1850   323.17415     -85709.608      889.66324      7844.0987      1.8688892     -0.93444458   
      1855   331.41137     -85710.157      3200.3516      7844.0987      1.8692243     -0.93461217   
      1860   330.82882     -85710.259      1412.9824      7844.0987      1.8696727     -0.93483637   
      1865   322.48188     -85710.407      2597.6151      7844.0987      1.8698976     -0.93494882   
      1870   316.55021     -85710.42       3495.5294      7844.0987      1.8699992     -0.93499962   
      1875   323.49862     -85710.817      2107.9496      7844.0987      1.8700325     -0.93501624   
      1880   334.25747     -85711.698      4222.1397      7844.0987      1.8698265     -0.93491327   
      1885   337.65328     -85711.977     -2337.9403      7844.0987      1.8697178     -0.93485889   
      1890   333.15235     -85712.728     -6261.2758      7844.0987      1.8696159     -0.93480795   
      1895   317.28501     -85713.114      923.39109      7844.0987      1.8692695     -0.93463477   
      1900   313.09205     -85713.827     -1266.9691      7844.0987      1.8686665     -0.93433326   
      1905   314.96325     -85714.304     -3002.2325      7844.0987      1.8679389     -0.93396946   
      1910   315.24806     -85714.658     -3319.8196      7844.0987      1.8669814     -0.93349071   
      1915   317.44619     -85715.035     -2432.6558      7844.0987      1.8661804     -0.93309019   
      1920   316.40561     -85715.828      1782.8365      7844.0987      1.8660452     -0.9330226    
      1925   308.05477     -85716.732      2100.7842      7844.0987      1.8664005     -0.93320027   
      1930   301.9096      -85717.344      697.63856      7844.0987      1.8666235     -0.93331173   
      1935   302.78172     -85717.88       393.48463      7844.0987      1.8668572     -0.93342861   
      1940   314.31645     -85718.879      3172.4191      7844.0987      1.8670738     -0.93353691   
      1945   324.04659     -85719.857      6264.8252      7844.0987      1.8676335     -0.93381675   
      1950   322.47683     -85720.515     -4442.1003      7844.0987      1.8686356     -0.93431779   
      1955   310.14105     -85721.645     -2070.9197      7844.0987      1.8696024     -0.93480119   
      1960   302.29733     -85722.393      2495.824       7844.0987      1.8699665     -0.93498323   
      1965   307.586       -85723.098      4012.1824      7844.0987      1.869963      -0.93498148   
      1970   311.00919     -85724.118     -2159.2906      7844.0987      1.869757      -0.93487849   
      1975   306.75228     -85724.516      6293.5404      7844.0987      1.8692831     -0.93464153   
      1980   311.47779     -85725.389     -1334.8054      7844.0987      1.8689432     -0.93447162   
      1985   308.52496     -85725.997     -2174.2551      7844.0987      1.8686477     -0.93432387   
      1990   305.8423      -85726.77       21.223925      7844.0987      1.8681124     -0.9340562    
      1995   312.22765     -85727.514     -1748.8375      7844.0987      1.8675701     -0.93378507   
      2000   310.22655     -85727.979     -4438.018       7844.0987      1.8670391     -0.93351954   
      2005   309.21577     -85729.08      -3775.5949      7844.0987      1.8665979     -0.93329896   
      2010   297.58736     -85729.691      267.55427      7844.0987      1.8659414     -0.93297072   
      2015   297.85211     -85730.354     -2275.5663      7844.0987      1.8654624     -0.9327312    
      2020   301.61968     -85730.978     -1798.027       7844.0987      1.8647453     -0.93237263   
      2025   310.13996     -85731.967     -3767.9887      7844.0987      1.8637202     -0.93186008   
      2030   314.52275     -85732.272     -7499.1951      7844.0987      1.8630836     -0.93154182   
      2035   309.46595     -85733.291     -2659.8558      7844.0987      1.8629043     -0.93145217   
      2040   304.61732     -85733.645      1931.6448      7844.0987      1.8629651     -0.93148253   
      2045   309.28142     -85734.845      1411.9662      7844.0987      1.8634089     -0.93170443   
      2050   312.67897     -85735.889      361.41129      7844.0987      1.8640507     -0.93202535   
      2055   315.76063     -85737.006     -4147.0605      7844.0987      1.8652989     -0.93264943   
      2060   314.74264     -85738.257     -5778.9769      7844.0987      1.8665704     -0.93328518   
      2065   315.23771     -85739.353     -3325.7128      7844.0987      1.8674309     -0.93371547   
      2070   315.41918     -85740.464      63.747931      7844.0987      1.8678608     -0.93393042   
      2075   316.79811     -85741.385     -1307.6686      7844.0987      1.8678371     -0.93391854   
      2080   317.98919     -85742.353     -920.96293      7844.0987      1.8675792     -0.93378959   
      2085   318.43775     -85743.356     -5368.3823      7844.0987      1.8672105     -0.93360523   
      2090   310.75954     -85743.63       2993.7902      7844.0987      1.8665382     -0.93326911   
      2095   315.52614     -85744.796     -4398.0904      7844.0987      1.8656866     -0.93284329   
      2100   308.95495     -85745.584     -5067.6273      7844.0987      1.8646746     -0.93233731   
      2105   300.97982     -85746.205      2624.844       7844.0987      1.8635896     -0.9317948    
      2110   304.77217     -85747.108      3471.6285      7844.0987      1.8625673     -0.93128363   
      2115   306.05922     -85747.956     -1629.3965      7844.0987      1.8619264     -0.93096322   
      2120   305.17636     -85748.62      -6923.6958      7844.0987      1.8614965     -0.93074823   
      2125   301.91599     -85749.964     -4155.948       7844.0987      1.8611024     -0.93055122   
      2130   300.45045     -85750.767     -155.29494      7844.0987      1.8608657     -0.93043287   
      2135   302.49681     -85751.621     -8676.4386      7844.0987      1.8609018     -0.93045089   
      2140   298.51892     -85752.568     -1609.9931      7844.0987      1.8612202     -0.93061008   
      2145   302.70304     -85754.048      512.76376      7844.0987      1.8622452     -0.93112261   
      2150   305.22423     -85755.317     -1155.8092      7844.0987      1.8636292     -0.93181458   
      2155   306.60477     -85756.624     -4565.9871      7844.0987      1.8653439     -0.93267195   
      2160   312.24018     -85757.712     -6346.0231      7844.0987      1.8672863     -0.93364314   
      2165   317.39351     -85759.452      665.93279      7844.0987      1.8693038     -0.93465189   
      2170   318.75728     -85760.961      1892.2065      7844.0987      1.8713287     -0.93566433   
      2175   314.73051     -85762.31       1774.7997      7844.0987      1.8737914     -0.93689571   
      2180   309.21713     -85764.198     -1420.4497      7844.0987      1.8764027     -0.93820135   
      2185   296.41549     -85765.701     -993.94405      7844.0987      1.8785152     -0.93925761   
      2190   291.80177     -85767.108      2231.6392      7844.0987      1.8799389     -0.93996943   
      2195   291.2247      -85767.804      4481.2697      7844.0987      1.8809013     -0.94045065   
      2200   295.87257     -85768.682     -1133.334       7844.0987      1.8816134     -0.94080671   
      2205   298.86247     -85769.699      1033.7411      7844.0987      1.8821157     -0.94105786   
      2210   298.13207     -85770.639      453.97559      7844.0987      1.8821737     -0.94108683   
      2215   296.92439     -85771.132      3884.4619      7844.0987      1.8816837     -0.94084183   
      2220   300.94413     -85771.527      3220.5997      7844.0987      1.8810395     -0.94051977   
      2225   306.70306     -85772.039     -2509.1765      7844.0987      1.8799578     -0.93997889   
      2230   309.34957     -85772.69       373.26397      7844.0987      1.8783845     -0.93919227   
      2235   311.64459     -85772.648     -645.92971      7844.0987      1.8767757     -0.93838784   
      2240   305.98335     -85772.952      280.38338      7844.0987      1.8747133     -0.93735666   
      2245   305.59303     -85773.057      2353.6006      7844.0987      1.8723447     -0.93617233   
      2250   304.25857     -85773.214      3799.2266      7844.0987      1.8701417     -0.93507086   
      2255   309.20831     -85773.445     -3117.1503      7844.0987      1.8680686     -0.93403431   
      2260   311.0139      -85773.428     -3355.6224      7844.0987      1.8660716     -0.9330358    
      2265   306.84151     -85773.689      1286.4321      7844.0987      1.8642114     -0.93210569   
      2270   295.58341     -85774.135      2670.3108      7844.0987      1.8628012     -0.93140058   
      2275   298.23291     -85774.868     -3944.1345      7844.0987      1.8618177     -0.93090887   
      2280   297.99634     -85775.177     -1611.5035      7844.0987      1.8612921     -0.93064604   
      2285   300.84189     -85775.794     -2121.8585      7844.0987      1.8615015     -0.93075076   
      2290   296.52843     -85776.566     -385.8392       7844.0987      1.86228       -0.93113999   
      2295   297.19989     -85777.871     -5594.5008      7844.0987      1.8637231     -0.93186153   
      2300   300.03536     -85778.689     -4555.099       7844.0987      1.8653495     -0.93267477   
      2305   306.17319     -85779.63      -1675.4568      7844.0987      1.8671639     -0.93358195   
      2310   311.95682     -85780.833     -1282.5367      7844.0987      1.8691475     -0.93457373   
      2315   311.37337     -85782.113      319.46484      7844.0987      1.8710955     -0.93554774   
      2320   303.96979     -85783.175     -3202.8249      7844.0987      1.8729357     -0.93646786   
      2325   302.1077      -85784.053     -4078.7515      7844.0987      1.8744646     -0.93723228   
      2330   299.94089     -85784.985      3974.7155      7844.0987      1.8753549     -0.93767745   
      2335   295.62605     -85785.943      3231.3052      7844.0987      1.8759561     -0.93797806   
      2340   291.42796     -85786.157      2633.9774      7844.0987      1.8765304     -0.93826518   
      2345   292.34421     -85786.827     -2360.1996      7844.0987      1.8771416     -0.93857078   
      2350   293.85552     -85787.807      7309.7121      7844.0987      1.8775129     -0.93875647   
      2355   300.78191     -85788.893      4056.4007      7844.0987      1.8778357     -0.93891783   
      2360   305.43234     -85788.843     -2170.9443      7844.0987      1.8778398     -0.93891988   
      2365   312.62741     -85789.252     -133.44385      7844.0987      1.8772232     -0.93861158   
      2370   319.53687     -85790.238      2345.4003      7844.0987      1.8766758     -0.93833792   
      2375   309.83109     -85790.454      5496.437       7844.0987      1.87643       -0.938215     
      2380   297.90945     -85790.939     -1159.5903      7844.0987      1.8762225     -0.93811125   
      2385   288.23053     -85791.503      310.19385      7844.0987      1.87567       -0.93783498   
      2390   290.22544     -85791.733      186.22077      7844.0987      1.874565      -0.93728248   
      2395   296.85965     -85792.178     -1066.3224      7844.0987      1.8734417     -0.93672084   
      2400   296.99016     -85792.419     -4178.6326      7844.0987      1.8724978     -0.93624889   
      2405   292.04129     -85792.896      1475.6461      7844.0987      1.8717374     -0.93586869   
      2410   286.36665     -85793.283      3081.1228      7844.0987      1.8713536     -0.93567678   
      2415   271.93846     -85793.303      2133.0391      7844.0987      1.8711353     -0.93556765   
      2420   270.76623     -85793.502      682.74921      7844.0987      1.8710018     -0.93550091   
      2425   276.74557     -85793.951      1303.4949      7844.0987      1.8708558     -0.93542788   
      2430   285.14167     -85794.235      4617.4071      7844.0987      1.8709086     -0.9354543    
      2435   289.86247     -85794.364     -1551.9608      7844.0987      1.8715885     -0.93579425   
      2440   290.52101     -85795.117      538.07145      7844.0987      1.8726275     -0.93631376   
      2445   292.59905     -85795.436      2005.1911      7844.0987      1.8737491     -0.93687454   
      2450   292.37606     -85795.934      1751.4885      7844.0987      1.8745471     -0.93727354   
      2455   303.01915     -85796.129     -2657.653       7844.0987      1.8749675     -0.93748375   
      2460   306.3263      -85796.275      570.31811      7844.0987      1.8748941     -0.93744704   
      2465   308.00602     -85796.446      3060.5226      7844.0987      1.8745885     -0.93729426   
      2470   304.81284     -85796.578     -262.8317       7844.0987      1.8743932     -0.93719661   
      2475   293.73721     -85796.556     -1421.8157      7844.0987      1.8742024     -0.93710118   
      2480   289.53219     -85797.037      2126.6081      7844.0987      1.8738821     -0.93694107   
      2485   286.55548     -85796.739     -911.3464       7844.0987      1.8733119     -0.93665595   
      2490   286.65154     -85796.757      581.1468       7844.0987      1.8727413     -0.93637064   
      2495   294.15714     -85797.241      465.19109      7844.0987      1.8726421     -0.93632104   
      2500   287.85827     -85797.308      1985.2561      7844.0987      1.8731778     -0.93658889   
      2505   281.82131     -85797.682      1164.6005      7844.0987      1.8743638     -0.93718189   
      2510   276.96021     -85797.824      3897.1157      7844.0987      1.8758435     -0.93792174   
      2515   285.38329     -85798.365      553.40191      7844.0987      1.8773526     -0.93867629   
      2520   294.57203     -85798.659     -1665.5498      7844.0987      1.8785918     -0.93929592   
      2525   297.11152     -85798.943      4232.1555      7844.0987      1.8795885     -0.93979424   
      2530   297.53611     -85799.064     -118.30242      7844.0987      1.8804514     -0.9402257    
      2535   289.31995     -85799.097      2307.781       7844.0987      1.8807485     -0.94037424   
      2540   286.11053     -85799.082      5134.9026      7844.0987      1.8805289     -0.94026446   
      2545   294.13631     -85798.692     -497.99948      7844.0987      1.8801168     -0.9400584    
      2550   301.45194     -85798.46      -3451.9775      7844.0987      1.8791059     -0.93955294   
      2555   302.59401     -85797.89      -475.99625      7844.0987      1.8779634     -0.93898169   
      2560   297.95808     -85797.308      1876.2811      7844.0987      1.8768726     -0.93843628   
      2565   298.96408     -85796.958      862.4338       7844.0987      1.8757306     -0.93786529   
      2570   299.7196      -85796.457      2356.831       7844.0987      1.8742717     -0.93713584   
      2575   298.68889     -85795.788     -551.08345      7844.0987      1.8722526     -0.93612631   
      2580   296.63154     -85795.202     -304.83763      7844.0987      1.8705365     -0.93526825   
      2585   292.12421     -85794.354     -995.06618      7844.0987      1.869249      -0.93462449   
      2590   288.2654      -85794.228     -4076.6784      7844.0987      1.8681881     -0.93409404   
      2595   291.30701     -85793.967     -3632.5358      7844.0987      1.8672691     -0.93363456   
      2600   293.32021     -85793.54      -970.25038      7844.0987      1.8666083     -0.93330413   
      2605   296.55253     -85793.055     -328.97978      7844.0987      1.8664852     -0.93324261   
      2610   298.95871     -85793.028     -471.90413      7844.0987      1.8667436     -0.93337179   
      2615   300.30416     -85793.072     -1728.0576      7844.0987      1.8672181     -0.93360904   
      2620   300.01054     -85792.933     -6374.411       7844.0987      1.8676096     -0.9338048    
      2625   302.59834     -85792.707     -5852.8031      7844.0987      1.867868      -0.933934     
      2630   304.06634     -85792.723     -817.31256      7844.0987      1.868336      -0.93416802   
      2635   301.10139     -85792.853      1176.7471      7844.0987      1.869053      -0.93452649   
      2640   283.87087     -85792.542      1140.4317      7844.0987      1.8697291     -0.93486454   
      2645   281.11533     -85792.291     -3300.6934      7844.0987      1.8704209     -0.93521047   
      2650   280.94704     -85792.38      -2304.3596      7844.0987      1.870936      -0.935468     
      2655   280.63674     -85791.681      8293.7603      7844.0987      1.8712021     -0.93560106   
      2660   280.81835     -85791.486     -871.07431      7844.0987      1.8714881     -0.93574404   
      2665   276.74255     -85790.874     -3110.0812      7844.0987      1.871627      -0.93581351   
      2670   280.56242     -85790.458     -3048.4122      7844.0987      1.8716024     -0.93580118   
      2675   285.90949     -85790.039     -77.657152      7844.0987      1.8717226     -0.93586131   
      2680   289.01696     -85789.105      3932.3439      7844.0987      1.8717656     -0.93588279   
      2685   295.26215     -85788.711      1165.4         7844.0987      1.871615      -0.93580752   
      2690   293.65306     -85787.689      160.80225      7844.0987      1.8712292     -0.93561459   
      2695   296.07137     -85787.001      2084.2751      7844.0987      1.8705737     -0.93528683   
      2700   305.2628      -85785.96      -3480.4021      7844.0987      1.869859      -0.93492948   
      2705   307.05368     -85784.786      648.97117      7844.0987      1.8690837     -0.93454184   
      2710   304.93469     -85783.774     -1098.3743      7844.0987      1.8683168     -0.93415839   
      2715   299.89248     -85782.677     -666.44537      7844.0987      1.8675599     -0.93377995   
      2720   294.77572     -85781.934     -34.679359      7844.0987      1.8668316     -0.93341581   
      2725   301.33968     -85781.494     -1889.7728      7844.0987      1.8660056     -0.93300279   
      2730   304.92464     -85780.255      129.94473      7844.0987      1.8652451     -0.93262254   
      2735   309.61168     -85779.252     -5290.543       7844.0987      1.8649372     -0.93246858   
      2740   306.27689     -85778.416     -2174.0788      7844.0987      1.8646935     -0.93234675   
      2745   302.80558     -85777.645     -2473.3351      7844.0987      1.8648486     -0.93242432   
      2750   300.27291     -85776.723     -5045.9866      7844.0987      1.8652007     -0.93260035   
      2755   306.32801     -85776.068     -5999.0658      7844.0987      1.8656335     -0.93281673   
      2760   300.473       -85775.088     -1429.7573      7844.0987      1.8661413     -0.93307067   
      2765   301.66231     -85774.488     -2337.5549      7844.0987      1.8670556     -0.9335278    
      2770   297.73997     -85773.854     -407.85251      7844.0987      1.8682071     -0.93410356   
      2775   302.08076     -85773.129     -3851.3103      7844.0987      1.8691446     -0.93457232   
      2780   306.72699     -85772.367     -3171.8383      7844.0987      1.8699784     -0.93498921   
      2785   309.8031      -85771.523     -778.73671      7844.0987      1.870901      -0.93545049   
      2790   311.29832     -85770.762     -1116.6295      7844.0987      1.8718727     -0.93593635   
      2795   309.45815     -85769.906     -2486.3851      7844.0987      1.8725367     -0.93626834   
      2800   306.07352     -85768.873     -1224.6206      7844.0987      1.8730795     -0.93653977   
      2805   299.17116     -85767.921      1313.8864      7844.0987      1.8731842     -0.93659211   
      2810   298.45618     -85766.863      5256.6123      7844.0987      1.8727553     -0.93637765   
      2815   299.24623     -85765.782      1638.8999      7844.0987      1.8720566     -0.93602831   
      2820   298.70128     -85764.556     -601.55961      7844.0987      1.8711401     -0.93557004   
      2825   300.34107     -85763.295     -3272.6321      7844.0987      1.8704178     -0.93520888   
      2830   295.02042     -85761.879     -1110.0123      7844.0987      1.8698938     -0.93494691   
      2835   296.11022     -85760.661      2879.8341      7844.0987      1.8693878     -0.93469392   
      2840   302.44998     -85759.409     -1087.0449      7844.0987      1.8689988     -0.93449939   
      2845   310.80227     -85758.456     -3054.608       7844.0987      1.8688494     -0.9344247    
      2850   316.02283     -85757.309      1259.1569      7844.0987      1.8688484     -0.93442418   
      2855   317.6983      -85756.093     -1994.8975      7844.0987      1.8690237     -0.93451184   
      2860   319.17431     -85754.73       589.29518      7844.0987      1.8692217     -0.93461084   
      2865   324.61994     -85754.016     -1811.7319      7844.0987      1.8694349     -0.93471746   
      2870   325.14765     -85752.882      2746.4127      7844.0987      1.8695804     -0.93479022   
      2875   322.45949     -85752.146      1373.9431      7844.0987      1.8700295     -0.93501475   
      2880   317.33055     -85751.256     -5307.0252      7844.0987      1.8704794     -0.9352397    
      2885   306.66932     -85750.287      2248.1084      7844.0987      1.87053       -0.93526499   
      2890   304.59589     -85749.421     -385.42116      7844.0987      1.8704507     -0.93522537   
      2895   307.17826     -85748.687     -54.291792      7844.0987      1.8704334     -0.93521671   
      2900   311.73746     -85747.797     -1375.6899      7844.0987      1.8704856     -0.93524281   
      2905   313.26507     -85747.002     -4485.0453      7844.0987      1.870643      -0.93532149   
      2910   316.37202     -85746.427      290.74707      7844.0987      1.8705675     -0.93528374   
      2915   311.64299     -85745.537      6736.0467      7844.0987      1.8705662     -0.9352831    
      2920   305.68328     -85744.585      5317.0345      7844.0987      1.870608      -0.93530398   
      2925   308.01842     -85743.929     -1589.9406      7844.0987      1.8704654     -0.93523271   
      2930   310.3231      -85743.408     -428.99981      7844.0987      1.8697599     -0.93487994   
      2935   311.56065     -85741.993      1257.4227      7844.0987      1.8685275     -0.93426374   
      2940   311.33032     -85741.277     -1221.1291      7844.0987      1.8670804     -0.93354022   
      2945   308.09493     -85740.29      -754.54421      7844.0987      1.8655467     -0.93277334   
      2950   302.92449     -85738.821      1093.6673      7844.0987      1.8640278     -0.93201392   
      2955   302.6406      -85738.113     -4714.3059      7844.0987      1.8629754     -0.93148771   
      2960   303.63884     -85737.353     -5448.2968      7844.0987      1.8620274     -0.93101368   
      2965   303.55623     -85736.438      2668.2888      7844.0987      1.8611901     -0.93059506   
      2970   309.68389     -85735.771     -1764.6558      7844.0987      1.8607781     -0.93038906   
      2975   307.752       -85735.321      8705.8957      7844.0987      1.8607371     -0.93036856   
      2980   308.28804     -85734.636     -5582.3997      7844.0987      1.8612867     -0.93064333   
      2985   309.29617     -85734.677     -5730.4229      7844.0987      1.8620395     -0.93101974   
      2990   306.47891     -85734.139      393.01042      7844.0987      1.8627466     -0.93137329   
      2995   305.22071     -85733.659      2043.5386      7844.0987      1.8634787     -0.93173934   
      3000   312.27419     -85733.423     -2975.7208      7844.0987      1.8636607     -0.93183037   
      3005   318.7702      -85733.025      1682.9994      7844.0987      1.8636758     -0.93183791   
      3010   318.03749     -85732.499     -3617.8507      7844.0987      1.86378       -0.93189      
      3015   317.95328     -85732.164     -4254.1089      7844.0987      1.8638706     -0.93193528   
      3020   315.63422     -85732.197     -5377.4124      7844.0987      1.8638747     -0.93193734   
      3025   307.67516     -85731.711      4899.5163      7844.0987      1.8637646     -0.93188231   
      3030   307.48766     -85731.416      2130.7035      7844.0987      1.8633968     -0.9316984    
      3035   313.63564     -85731.383     -4200.6934      7844.0987      1.8627316     -0.93136581   
      3040   317.13907     -85730.191     -5474.4912      7844.0987      1.8618298     -0.9309149    
      3045   319.69379     -85729.903      797.63672      7844.0987      1.8611532     -0.93057662   
      3050   314.24662     -85729.45      -2217.091       7844.0987      1.8608565     -0.93042824   
      3055   312.93169     -85729.427     -6658.4914      7844.0987      1.8607711     -0.93038554   
      3060   312.01919     -85728.75      -4615.9865      7844.0987      1.8605173     -0.93025864   
      3065   319.60528     -85728.863     -5828.1107      7844.0987      1.8603012     -0.9301506    
      3070   320.47173     -85728.849     -7149.3496      7844.0987      1.8602226     -0.93011129   
      3075   317.77592     -85729.24      -4381.775       7844.0987      1.8604206     -0.93021031   
      3080   310.15465     -85729.589      1051.2377      7844.0987      1.861111      -0.93055548   
      3085   304.26415     -85729.546      922.94046      7844.0987      1.8621122     -0.93105612   
      3090   305.45223     -85730.515     -2123.056       7844.0987      1.863549      -0.93177449   
      3095   297.31771     -85730.231     -6584.3925      7844.0987      1.8654782     -0.93273909   
      3100   302.12507     -85731.158     -5253.039       7844.0987      1.8676282     -0.93381411   
      3105   298.03881     -85731.698      11387.192      7844.0987      1.8697873     -0.93489364   
      3110   298.07821     -85732.533      8262.8595      7844.0987      1.8721647     -0.93608236   
      3115   296.87357     -85732.8       -2157.4342      7844.0987      1.8746166     -0.9373083    
      3120   307.02539     -85733.374      1686.1769      7844.0987      1.87661       -0.93830502   
      3125   314.89676     -85734.108      3487.3719      7844.0987      1.8779338     -0.93896692   
      3130   320.4962      -85734.578     -499.32638      7844.0987      1.8792514     -0.93962568   
      3135   317.53852     -85735.13       1389.0449      7844.0987      1.8802881     -0.94014405   
      3140   312.45067     -85735.354     -82.813323      7844.0987      1.8805335     -0.94026674   
      3145   311.25359     -85735.254      5213.3327      7844.0987      1.8799275     -0.93996376   
      3150   316.30846     -85735.301      1258.3793      7844.0987      1.8784008     -0.93920038   
      3155   320.44003     -85735.046     -1498.9429      7844.0987      1.8763205     -0.93816024   
      3160   324.63287     -85735.146     -3786.1855      7844.0987      1.8739073     -0.93695367   
      3165   315.56821     -85734.53       2278.3584      7844.0987      1.8712998     -0.93564989   
      3170   311.8959      -85734.441      2106.3294      7844.0987      1.8687077     -0.93435383   
      3175   309.42576     -85734.341     -1794.3344      7844.0987      1.8662235     -0.93311175   
      3180   312.90051     -85734.831     -2735.8949      7844.0987      1.8639369     -0.93196843   
      3185   308.95029     -85735.314     -3916.9251      7844.0987      1.8618909     -0.93094545   
      3190   303.73356     -85735.706     -5640.0366      7844.0987      1.8600351     -0.93001753   
      3195   302.45616     -85735.946     -1516.1548      7844.0987      1.858414      -0.929207     
      3200   298.27659     -85736.37      -3776.072       7844.0987      1.857168      -0.928584     
      3205   305.80299     -85737.455     -5137.8899      7844.0987      1.8560745     -0.92803723   
      3210   309.42333     -85738.512     -6975.3823      7844.0987      1.8554126     -0.92770628   
      3215   315.55646     -85739.538     -9533.0616      7844.0987      1.855245      -0.92762251   
      3220   307.61552     -85741.445     -668.13513      7844.0987      1.8555419     -0.92777096   
      3225   303.56924     -85742.412     -2491.198       7844.0987      1.8562761     -0.92813805   
      3230   300.20748     -85743.582      4346.9782      7844.0987      1.8569547     -0.92847736   
      3235   311.72086     -85745.9       -4324.4492      7844.0987      1.8577229     -0.92886146   
      3240   317.08904     -85747.851     -1640.6363      7844.0987      1.8586567     -0.92932835   
      3245   316.44911     -85750.018     -5733.0874      7844.0987      1.8599287     -0.92996433   
      3250   312.51031     -85752.275     -6466.7954      7844.0987      1.8611487     -0.93057436   
      3255   312.31653     -85754.4       -5915.6785      7844.0987      1.862419      -0.93120952   
      3260   314.17381     -85756.813     -4886.8792      7844.0987      1.8634566     -0.9317283    
      3265   308.07233     -85759.504      2546.2802      7844.0987      1.8646869     -0.93234343   
      3270   305.99913     -85761.968     -3933.5113      7844.0987      1.8661544     -0.93307722   
      3275   299.32392     -85764.498     -5449.8528      7844.0987      1.8673962     -0.93369808   
      3280   299.36346     -85767.181     -2001.912       7844.0987      1.8682797     -0.93413983   
      3285   299.90028     -85769.847     -4521.1278      7844.0987      1.8690748     -0.93453741   
      3290   296.55904     -85771.966      2400.1919      7844.0987      1.8697452     -0.93487262   
      3295   294.69685     -85774.412     -1830.2994      7844.0987      1.8701522     -0.93507612   
      3300   292.96485     -85776.545     -1531.5274      7844.0987      1.8707468     -0.93537342   
      3305   291.51756     -85778.374     -5114.8545      7844.0987      1.8712308     -0.93561539   
      3310   291.12074     -85780.419     -193.05148      7844.0987      1.8716088     -0.93580442   
      3315   296.39812     -85782.087     -995.02028      7844.0987      1.8720486     -0.9360243    
      3320   301.95646     -85784.019     -4606.4857      7844.0987      1.8724534     -0.93622668   
      3325   302.97828     -85785.835     -3608.8248      7844.0987      1.8727165     -0.93635826   
      3330   298.21844     -85787.379      1467.9273      7844.0987      1.8730307     -0.93651536   
      3335   295.90482     -85788.852     -844.41537      7844.0987      1.8732695     -0.93663475   
      3340   291.22472     -85789.719      1112.8168      7844.0987      1.8734194     -0.93670971   
      3345   296.94777     -85791.336     -1796.1501      7844.0987      1.8735241     -0.93676206   
      3350   296.39165     -85792.616     -2166.4133      7844.0987      1.8734336     -0.93671681   
      3355   294.97448     -85793.503     -1098.9942      7844.0987      1.8730865     -0.93654324   
      3360   294.34852     -85794.418     -3739.9587      7844.0987      1.8724609     -0.93623043   
      3365   293.98075     -85795.198      2131.9246      7844.0987      1.871623      -0.9358115    
      3370   295.1589      -85795.907     -1588.0242      7844.0987      1.8708534     -0.9354267    
      3375   293.91717     -85796.791     -8019.7462      7844.0987      1.8703838     -0.93519189   
      3380   293.19291     -85797.695     -3966.7855      7844.0987      1.8701924     -0.93509619   
      3385   289.17415     -85798.304     -3368.6442      7844.0987      1.8703377     -0.93516884   
      3390   288.57385     -85799.008     -3558.7584      7844.0987      1.8707314     -0.9353657    
      3395   292.78013     -85799.908     -5367.0083      7844.0987      1.8709725     -0.93548626   
      3400   298.95789     -85800.301     -2515.8726      7844.0987      1.8706974     -0.93534872   
      3405   299.04741     -85800.605      2357.3211      7844.0987      1.8704217     -0.93521084   
      3410   300.73448     -85801.172      1085.2397      7844.0987      1.8701914     -0.93509568   
      3415   299.91409     -85801.429      1042.2687      7844.0987      1.8698412     -0.93492062   
      3420   298.04528     -85802.088     -617.57062      7844.0987      1.8692931     -0.93464656   
      3425   294.30459     -85802.125     -986.42224      7844.0987      1.8686759     -0.93433793   
      3430   290.726       -85802.825      839.14594      7844.0987      1.8681044     -0.93405221   
      3435   289.41081     -85803.192     -4110.0741      7844.0987      1.8677066     -0.93385329   
      3440   282.95163     -85803.046     -2020.3339      7844.0987      1.8672465     -0.93362327   
      3445   285.00293     -85803.396     -2993.4348      7844.0987      1.8669294     -0.93346472   
      3450   287.31124     -85803.477     -2165.592       7844.0987      1.8666094     -0.93330471   
      3455   292.907       -85803.638     -359.80896      7844.0987      1.866663      -0.93333152   
      3460   294.22614     -85803.98       1297.2034      7844.0987      1.8671918     -0.9335959    
      3465   294.36233     -85804.421     -7325.0744      7844.0987      1.8675456     -0.93377279   
      3470   294.88951     -85805.065     -5447.0742      7844.0987      1.8677434     -0.93387171   
      3475   293.37101     -85804.978      542.80358      7844.0987      1.8676996     -0.93384981   
      3480   299.71377     -85804.996     -3527.325       7844.0987      1.8675813     -0.93379063   
      3485   300.05734     -85805.438     -3230.5662      7844.0987      1.8678033     -0.93390163   
      3490   297.47397     -85805.761      3365.3817      7844.0987      1.8681767     -0.93408834   
      3495   290.77896     -85805.993     -4480.9503      7844.0987      1.8689013     -0.93445063   
      3500   286.51307     -85806.517     -5598.9655      7844.0987      1.8695807     -0.93479036   
      3505   281.06718     -85806.554     -2768.9041      7844.0987      1.8697555     -0.93487774   
      3510   280.19062     -85806.219     -3378.5607      7844.0987      1.8695709     -0.93478547   
      3515   284.20896     -85806.245      7441.7654      7844.0987      1.8693387     -0.93466934   
      3520   291.21711     -85806.556     -6403.2431      7844.0987      1.8692926     -0.93464628   
      3525   286.91127     -85806.863     -3552.7288      7844.0987      1.8693269     -0.93466343   
      3530   285.67881     -85806.76      -2439.8466      7844.0987      1.8695231     -0.93476154   
      3535   285.38378     -85806.484     -4074.0519      7844.0987      1.8696009     -0.93480046   
      3540   286.2411      -85806.095      2296.4597      7844.0987      1.8697728     -0.93488642   
      3545   293.13234     -85806.082      1030.5084      7844.0987      1.8701359     -0.93506796   
      3550   301.77696     -85806.253     -3407.334       7844.0987      1.870748      -0.93537401   
      3555   298.36545     -85806.672      909.21979      7844.0987      1.8715032     -0.93575161   
      3560   294.93204     -85806.668      937.16106      7844.0987      1.8723704     -0.93618518   
      3565   290.56262     -85806.764     -5.5746733      7844.0987      1.873122      -0.93656099   
      3570   294.9641      -85806.41      -3206.0502      7844.0987      1.87357       -0.936785     
      3575   305.30741     -85806.189     -2218.1804      7844.0987      1.8738817     -0.93694087   
      3580   302.19254     -85806.036     -1460.2062      7844.0987      1.8743117     -0.93715583   
      3585   293.27947     -85806.225      2344.6269      7844.0987      1.8749809     -0.93749045   
      3590   281.38904     -85806.003      662.00264      7844.0987      1.875759      -0.9378795    
      3595   283.86236     -85805.853     -2915.0177      7844.0987      1.8761501     -0.93807507   
      3600   296.7091      -85805.549     -4033.3055      7844.0987      1.8760932     -0.9380466    
      3605   306.82722     -85805.155      4656.718       7844.0987      1.8757906     -0.93789529   
      3610   312.20769     -85805.059     -2296.4379      7844.0987      1.8759899     -0.93799494   
      3615   301.64614     -85804.802     -3167.7936      7844.0987      1.8762286     -0.93811428   
      3620   298.43112     -85804.758     -2032.238       7844.0987      1.8764395     -0.93821976   
      3625   300.10766     -85804.445     -5706.5195      7844.0987      1.8761586     -0.93807932   
      3630   299.29605     -85804.042      1565.7939      7844.0987      1.8754539     -0.93772694   
      3635   295.6048      -85803.863      4401.6334      7844.0987      1.8747563     -0.93737815   
      3640   290.09757     -85803.199     -4721.4968      7844.0987      1.8741582     -0.93707911   
[...]
     29090   311.71501     -84499.962     -503.56771      12568.207      1.8097876     -0.90489382   
     29095   307.16253     -84499.583      388.25808      12569.188      1.8097213     -0.90486067   
     29100   293.43158     -84498.745     -1541.1853      12570.168      1.8101686     -0.9050843    
     29105   297.10334     -84498.523     -412.33525      12571.149      1.8110441     -0.90552205   
     29110   302.1974      -84498.487     -3403.1385      12572.129      1.8119315     -0.90596574   
     29115   308.58087     -84498.318     -2172.5679      12573.11       1.8128911     -0.90644555   
     29120   312.18619     -84498.298      4107.837       12574.09       1.814168      -0.90708402   
     29125   311.18569     -84498.289      645.74495      12575.071      1.8154999     -0.90774995   
     29130   306.36322     -84497.634     -614.23951      12576.051      1.8166599     -0.90832997   
     29135   308.68604     -84497.581      585.54788      12577.032      1.8173249     -0.90866244   
     29140   316.041       -84497.463     -1610.1422      12578.012      1.8172951     -0.90864753   
     29145   317.61973     -84497.234      1124.2048      12578.993      1.8166653     -0.90833265   
     29150   316.87372     -84496.667      545.41681      12579.973      1.8156474     -0.90782371   
     29155   316.34345     -84496.154      1060.1592      12580.954      1.8143541     -0.90717707   
     29160   312.41657     -84495.235     -1023.2447      12581.934      1.8132004     -0.90660022   
     29165   311.8269      -84495.185     -1569.589       12582.915      1.8120979     -0.90604895   
     29170   304.41693     -84494.699      2495.2163      12583.895      1.8110341     -0.90551703   
     29175   302.68199     -84494.424     -991.57977      12584.876      1.8102805     -0.90514025   
     29180   293.25585     -84494.088     -3068.7062      12585.856      1.810062      -0.90503101   
     29185   295.98405     -84494.388     -1527.7675      12586.837      1.8103062     -0.90515309   
     29190   298.98572     -84494.155     -340.42264      12587.817      1.8108448     -0.90542238   
     29195   307.66428     -84494.408     -725.30152      12588.798      1.8115742     -0.90578708   
     29200   316.57995     -84494.805      571.61852      12589.778      1.8127693     -0.90638463   
     29205   319.01313     -84494.907     -307.26483      12590.759      1.8142738     -0.90713691   
     29210   313.85623     -84495.008      512.38441      12591.74       1.8156378     -0.90781888   
     29215   321.05613     -84495.615      711.42474      12592.72       1.816594      -0.90829698   
     29220   328.51294     -84495.792      609.49244      12593.701      1.8170281     -0.90851407   
     29225   324.48786     -84495.77      -714.98595      12594.681      1.8172928     -0.90864639   
     29230   315.77268     -84495.806      968.35389      12595.662      1.8173587     -0.90867935   
     29235   304.31343     -84496.11      -555.07846      12596.642      1.8171266     -0.90856331   
     29240   288.10665     -84496.003      864.94298      12597.623      1.8164836     -0.90824182   
     29245   288.84556     -84495.758      1513.8958      12598.603      1.8155365     -0.90776827   
     29250   294.68841     -84495.809     -1826.6351      12599.584      1.8142954     -0.90714769   
     29255   289.27903     -84495.469      1964.8384      12600.564      1.8130707     -0.90653535   
     29260   288.94835     -84495.559     -2624.3271      12601.545      1.8125467     -0.90627337   
     29265   284.8203      -84495.43      -1200.6329      12602.525      1.8124676     -0.90623382   
     29270   290.88506     -84495.33      -2361.3461      12603.506      1.8126087     -0.90630436   
     29275   299.82708     -84495.604     -442.25576      12604.486      1.8128642     -0.90643211   
     29280   305.74682     -84495.674     -2524.4177      12605.467      1.8134813     -0.90674064   
     29285   305.33714     -84495.784      28.861896      12606.447      1.8138616     -0.90693082   
     29290   305.80841     -84496.043      82.405508      12607.428      1.8139206     -0.90696028   
     29295   299.78534     -84496.347      2028.5685      12608.408      1.8137827     -0.90689135   
     29300   306.51502     -84496.122     -3513.8328      12609.389      1.81366       -0.90682998   
     29305   307.73828     -84496.138     -2216.5269      12610.369      1.8134271     -0.90671353   
     29310   301.6536      -84495.997      3303.533       12611.35       1.813131      -0.90656549   
     29315   306.20805     -84496.429     -2207.4017      12612.33       1.8128796     -0.90643979   
     29320   303.06035     -84496.434     -2635.8333      12613.311      1.8127639     -0.90638194   
     29325   308.26854     -84496.513     -1910.8871      12614.291      1.8126633     -0.90633166   
     29330   316.09774     -84496.482     -26.673017      12615.272      1.8125488     -0.90627439   
     29335   315.83644     -84496.826      400.91935      12616.252      1.8127574     -0.90637869   
     29340   310.9693      -84496.837     -692.24907      12617.233      1.8131204     -0.90656021   
     29345   302.41841     -84497.121     -48.855899      12618.213      1.8131643     -0.90658214   
     29350   299.25708     -84497.387     -1105.7996      12619.194      1.8129633     -0.90648167   
     29355   301.19337     -84497.379     -1931.4364      12620.174      1.8127372     -0.90636861   
     29360   302.29977     -84497.438      425.55149      12621.155      1.8123004     -0.9061502    
     29365   302.17378     -84497.772     -1193.0007      12622.135      1.8120679     -0.90603394   
     29370   293.03647     -84498.208     -59.61437       12623.116      1.8119783     -0.90598915   
     29375   295.76977     -84498.508     -274.40629      12624.096      1.8121599     -0.90607996   
     29380   293.40454     -84498.662     -1341.0875      12625.077      1.8127174     -0.90635872   
     29385   299.9037      -84499.263     -1810.3144      12626.057      1.8136473     -0.90682365   
     29390   301.45282     -84499.394     -281.66607      12627.038      1.814737      -0.90736849   
     29395   307.32826     -84500.206      530.20239      12628.018      1.8162643     -0.90813214   
     29400   302.68495     -84500.63       1734.4345      12628.999      1.8179989     -0.90899946   
     29405   302.67299     -84501.038      890.1554       12629.979      1.8197042     -0.90985208   
     29410   306.75531     -84501.736     -509.02225      12630.96       1.8208978     -0.91044889   
     29415   309.71481     -84501.919      795.79083      12631.941      1.8213885     -0.91069423   
     29420   310.04318     -84501.901      645.60588      12632.921      1.821276      -0.91063802   
     29425   313.42312     -84502.158      1359.954       12633.902      1.8205535     -0.91027676   
     29430   311.38317     -84502.291      1574.0479      12634.882      1.8193801     -0.90969003   
     29435   307.00367     -84502.332      1758.1107      12635.863      1.8178317     -0.90891583   
     29440   313.34879     -84502.388     -1106.9677      12636.843      1.8162825     -0.90814123   
     29445   311.55618     -84502.364     -2554.383       12637.824      1.8144623     -0.90723116   
     29450   302.40082     -84501.977     -3002.5299      12638.804      1.8127896     -0.90639481   
     29455   292.81992     -84502.256     -360.96825      12639.785      1.8113801     -0.90569003   
     29460   285.42596     -84502.227     -3256.6134      12640.765      1.8103543     -0.90517714   
     29465   279.80137     -84502.188     -1008.8936      12641.746      1.8096049     -0.90480247   
     29470   285.28383     -84502.587     -3474.1711      12642.726      1.8091746     -0.9045873    
     29475   284.2928      -84502.886     -2146.1333      12643.707      1.8091897     -0.90459483   
     29480   290.36647     -84503.182     -2882.7595      12644.687      1.8095282     -0.90476412   
     29485   301.17534     -84503.598     -1053.8133      12645.668      1.8100728     -0.90503638   
     29490   307.43744     -84503.932     -1643.4194      12646.648      1.8108471     -0.90542353   
     29495   315.33938     -84504.55      -1774.373       12647.629      1.8118723     -0.90593617   
     29500   309.32706     -84504.807     -1430.3233      12648.609      1.8128898     -0.9064449    
     29505   302.83376     -84505.298     -5449.4394      12649.59       1.8139335     -0.90696677   
     29510   299.91784     -84505.778     -1627.7688      12650.57       1.8145477     -0.90727386   
     29515   300.78232     -84506.222      3084.4465      12651.551      1.8146832     -0.9073416    
     29520   305.60513     -84506.919     -532.31056      12652.531      1.8151915     -0.90759577   
     29525   304.6712      -84507.481     -1436.76        12653.512      1.8158926     -0.90794628   
     29530   303.33968     -84507.797     -397.53787      12654.492      1.8167295     -0.90836476   
     29535   299.01593     -84508.646     -282.30602      12655.473      1.8178446     -0.90892231   
     29540   299.82352     -84509.245     -632.09509      12656.453      1.8188943     -0.90944716   
     29545   304.41562     -84509.515      1605.0571      12657.434      1.8196366     -0.9098183    
     29550   310.53982     -84510.259      1877.7439      12658.414      1.8203454     -0.91017268   
     29555   310.53906     -84510.83       83.728129      12659.395      1.8213168     -0.91065839   
     29560   305.89117     -84511.372      4452.6262      12660.375      1.8221534     -0.91107669   
     29565   310.96487     -84512.089      2505.5062      12661.356      1.822683      -0.91134152   
     29570   313.31485     -84512.524     -457.74157      12662.336      1.8227729     -0.91138645   
     29575   312.59096     -84513.444      3223.1471      12663.317      1.822465      -0.9112325    
     29580   305.18814     -84513.64       4905.1684      12664.297      1.8220078     -0.9110039    
     29585   301.38111     -84514.622      4168.5104      12665.278      1.8213366     -0.91066829   
     29590   288.83831     -84514.443      3451.4369      12666.258      1.8206715     -0.91033574   
     29595   290.32363     -84514.824      1371.6104      12667.239      1.8197597     -0.90987984   
     29600   287.04231     -84515.254      4735.4951      12668.219      1.8190212     -0.90951059   
     29605   279.72087     -84515.754      3885.902       12669.2        1.8186587     -0.90932933   
     29610   276.2931      -84516.117      4110.5397      12670.18       1.8183661     -0.90918304   
     29615   281.78625     -84516.097      517.49879      12671.161      1.818202      -0.90910098   
     29620   290.49569     -84516.544      1339.9814      12672.142      1.8178613     -0.90893067   
     29625   295.83298     -84516.886      692.33586      12673.122      1.8175959     -0.90879793   
     29630   292.40722     -84517.357     -335.51229      12674.103      1.8176114     -0.90880569   
     29635   289.0029      -84517.497      726.72336      12675.083      1.8174488     -0.9087244    
     29640   289.86648     -84517.601      2235.0383      12676.064      1.8171391     -0.90856956   
     29645   293.73518     -84518.581      2699.6847      12677.044      1.8166627     -0.90833136   
     29650   294.58337     -84518.16      -6.5074383      12678.025      1.8160964     -0.90804821   
     29655   296.14206     -84518.111     -355.50096      12679.005      1.8153891     -0.90769453   
     29660   294.76552     -84518.089      1592.9671      12679.986      1.8146319     -0.90731593   
     29665   294.04706     -84518.409      1185.3323      12680.966      1.8140673     -0.90703363   
     29670   291.4194      -84518.666      202.48851      12681.947      1.8138634     -0.9069317    
     29675   287.30716     -84518.814      719.71158      12682.927      1.8139293     -0.90696463   
     29680   287.97408     -84519.449      3714.4328      12683.908      1.8143972     -0.90719862   
     29685   290.78933     -84519.483      955.79857      12684.888      1.8155511     -0.90777557   
     29690   294.05348     -84519.88       2788.6413      12685.869      1.816809      -0.9084045    
     29695   295.72855     -84520.17       5268.4174      12686.849      1.8182534     -0.90912671   
     29700   304.49136     -84521.087      180.91722      12687.83       1.8201437     -0.91007184   
     29705   296.97594     -84521.593      3617.6274      12688.81       1.8221515     -0.91107576   
     29710   295.65244     -84522.176      2886.8522      12689.791      1.8239073     -0.91195363   
     29715   294.13881     -84522.877      4338.6372      12690.771      1.8255333     -0.91276665   
     29720   298.26241     -84523.558      3110.3695      12691.752      1.8266251     -0.91331255   
     29725   296.86622     -84523.719      1901.0399      12692.732      1.827489      -0.9137445    
     29730   300.53757     -84524.274      1004.7392      12693.713      1.8283237     -0.91416186   
     29735   293.59215     -84524.14       5279.6624      12694.693      1.8288388     -0.91441941   
     29740   293.47051     -84524.4        3413.5592      12695.674      1.8292925     -0.91464626   
     29745   295.05165     -84524.354      5902.5974      12696.654      1.8293293     -0.91466467   
     29750   289.10138     -84524.481      4674.6122      12697.635      1.829296      -0.91464802   
     29755   292.13526     -84524.593      724.18461      12698.615      1.829414      -0.91470701   
     29760   290.99729     -84524.379      4078.7386      12699.596      1.8293081     -0.91465407   
     29765   289.28594     -84524.261      301.8727       12700.576      1.8289728     -0.9144864    
     29770   291.4905      -84524.408      4443.9354      12701.557      1.8282178     -0.91410892   
     29775   296.41076     -84524.435      4254.2877      12702.537      1.827062      -0.91353101   
     29780   300.22628     -84523.681      789.57716      12703.518      1.825776      -0.91288799   
     29785   305.54312     -84523.411      2406.2179      12704.498      1.8242813     -0.91214064   
     29790   303.53773     -84522.623      2465.6068      12705.479      1.8229009     -0.91145044   
     29795   297.88815     -84522.305      972.69185      12706.459      1.8212873     -0.91064366   
     29800   294.59498     -84521.844      2919.9227      12707.44       1.8195363     -0.90976814   
     29805   296.74067     -84520.886     -765.32271      12708.42       1.8177619     -0.90888097   
     29810   303.0859      -84520.561     -2573.9609      12709.401      1.8160209     -0.90801043   
     29815   310.27687     -84519.702     -2283.1047      12710.381      1.814636      -0.90731802   
     29820   302.37233     -84519.315      2159.9017      12711.362      1.8134265     -0.90671325   
     29825   298.14357     -84519.269      903.23022      12712.343      1.8126547     -0.90632736   
     29830   297.23403     -84518.998      121.4329       12713.323      1.8122221     -0.90611104   
     29835   297.92331     -84518.826      732.45788      12714.304      1.8117924     -0.90589618   
     29840   300.91498     -84518.612     -1081.6209      12715.284      1.8116598     -0.9058299    
     29845   305.72716     -84519.023     -1233.939       12716.265      1.8120422     -0.90602108   
     29850   301.90523     -84519.029     -957.9115       12717.245      1.8127568     -0.90637839   
     29855   302.24246     -84518.955     -1147.475       12718.226      1.8134987     -0.90674936   
     29860   298.4307      -84518.976      2234.9966      12719.206      1.8144064     -0.90720318   
     29865   302.83307     -84519.272      2066.6844      12720.187      1.8156703     -0.90783517   
     29870   304.68698     -84519.562      217.91941      12721.167      1.8170574     -0.90852871   
     29875   306.33584     -84519.967      1593.2547      12722.148      1.8187616     -0.9093808    
     29880   300.90424     -84520.198      393.04756      12723.128      1.8205509     -0.91027547   
     29885   305.06423     -84520.423      524.77508      12724.109      1.8220466     -0.91102332   
     29890   310.27667     -84521.284      2982.2916      12725.089      1.8230836     -0.9115418    
     29895   313.65186     -84521.03       2625.3133      12726.07       1.8239715     -0.91198574   
     29900   308.16591     -84521.438      8528.6738      12727.05       1.8249432     -0.91247158   
     29905   305.85842     -84522.217      788.40349      12728.031      1.8263161     -0.91315804   
     29910   302.09829     -84522.626     -275.67332      12729.011      1.8276364     -0.91381818   
     29915   292.97986     -84523.255      5740.0243      12729.992      1.828613      -0.9143065    
     29920   294.55043     -84523.659      5114.6793      12730.972      1.8292802     -0.9146401    
     29925   294.73563     -84523.557      5725.8818      12731.953      1.8301199     -0.91505995   
     29930   289.21274     -84523.615     -555.94291      12732.933      1.8305661     -0.91528305   
     29935   293.29417     -84524.14       2134.6964      12733.914      1.8300662     -0.91503308   
     29940   299.81535     -84523.153      4874.3476      12734.894      1.8289432     -0.91447161   
     29945   308.70303     -84523.126      3731.0415      12735.875      1.8277808     -0.91389039   
     29950   301.40665     -84522.516      3743.6304      12736.855      1.8266062     -0.91330311   
     29955   304.29738     -84522.302      2412.3724      12737.836      1.8251253     -0.91256267   
     29960   301.72479     -84521.818      1073.8575      12738.816      1.8233515     -0.91167574   
     29965   303.32647     -84521.56       2324.5849      12739.797      1.8213876     -0.9106938    
     29970   297.73862     -84520.987      963.97719      12740.777      1.8196099     -0.90980495   
     29975   302.215       -84520.963      1801.6137      12741.758      1.8176451     -0.90882255   
     29980   299.94439     -84520.018     -1149.6997      12742.738      1.8157805     -0.90789024   
     29985   305.40177     -84519.807     -933.4755       12743.719      1.814052      -0.90702598   
     29990   300.37268     -84519.429      1669.5697      12744.699      1.8120984     -0.90604921   
     29995   298.59509     -84519.077     -1754.9856      12745.68       1.8101728     -0.90508642   
     30000   301.41332     -84518.533     -1184.531       12746.66       1.8083354     -0.90416771   
Loop time of 1249.24 on 4 procs for 25000 steps with 576 atoms

Performance: 0.865 ns/day, 27.761 hours/ns, 20.012 timesteps/s, 11.527 katom-step/s
98.7% CPU use with 4 MPI tasks x no OpenMP threads

MPI task timing breakdown:
Section |  min time  |  avg time  |  max time  |%varavg| %total
---------------------------------------------------------------
Pair    | 731.89     | 784.88     | 838.73     | 174.2 | 62.83
Bond    | 0.012716   | 0.013628   | 0.015337   |   0.9 |  0.00
Neigh   | 174.52     | 179.2      | 183.8      |  29.7 | 14.34
Comm    | 17.056     | 70.854     | 123.98     | 581.5 |  5.67
Output  | 0.53402    | 0.56703    | 0.63509    |   5.3 |  0.05
Modify  | 208.82     | 213.44     | 218        |  26.4 | 17.09
Other   |            | 0.2871     |            |       |  0.02

Nlocal:            144 ave         238 max          49 min
Histogram: 2 0 0 0 0 0 0 0 0 2
Nghost:        2593.25 ave        2780 max        2407 min
Histogram: 2 0 0 0 0 0 0 0 0 2
Neighs:        54835.5 ave       94991 max       14757 min
Histogram: 2 0 0 0 0 0 0 0 0 2

Total # of neighbors = 219342
Ave neighs/atom = 380.80208
Ave special neighs/atom = 0
Neighbor list builds = 5000
Dangerous builds not checked

write_data silica-deformed.data
System init for write_data ...
Total wall time: 0:25:45
