LAMMPS data file via write_data, version 2 Aug 2023, timestep = 12000, units = real

1650 atoms
5 atom types
792 bonds
1 bond types
396 angles
1 angle types

-12.120000000000001 12.120000000000001 xlo xhi
-12.120000000000001 12.120000000000001 ylo yhi
-28.28 28.28 zlo zhi

Masses

1 15.9994
2 1.008
3 28.99
4 35.453
5 26.9815

Pair Coeffs # lj/cut/tip4p/long

1 0.185199 3.1589
2 0 0
3 0.0469 2.4299
4 0.15 4.0447
5 11.697 2.574

Bond Coeffs # harmonic

1 0 0.9572

Angle Coeffs # harmonic

1 0 104.52

Atoms # full

1 0 5 0 -12.120000000000001 -12.120000000000001 -16.16 0 0 0
2 0 5 0 -10.1 -10.1 -16.16 0 0 0
3 0 5 0 -8.08 -12.120000000000001 -16.16 0 0 0
4 0 5 0 -6.0600000000000005 -10.1 -16.16 0 0 0
13 0 5 0 -12.120000000000001 -8.08 -16.16 0 0 0
14 0 5 0 -10.1 -6.0600000000000005 -16.16 0 0 0
15 0 5 0 -8.08 -8.08 -16.16 0 0 0
16 0 5 0 -6.0600000000000005 -6.0600000000000005 -16.16 0 0 0
5 0 5 0 -4.04 -12.120000000000001 -16.16 0 0 0
6 0 5 0 -2.02 -10.1 -16.16 0 0 0
7 0 5 0 0 -12.120000000000001 -16.16 0 0 0
8 0 5 0 2.02 -10.1 -16.16 0 0 0
9 0 5 0 4.04 -12.120000000000001 -16.16 0 0 0
17 0 5 0 -4.04 -8.08 -16.16 0 0 0
18 0 5 0 -2.02 -6.0600000000000005 -16.16 0 0 0
19 0 5 0 0 -8.08 -16.16 0 0 0
20 0 5 0 2.02 -6.0600000000000005 -16.16 0 0 0
21 0 5 0 4.04 -8.08 -16.16 0 0 0
10 0 5 0 6.0600000000000005 -10.1 -16.16 0 0 0
11 0 5 0 8.08 -12.120000000000001 -16.16 0 0 0
12 0 5 0 10.1 -10.1 -16.16 0 0 0
22 0 5 0 6.0600000000000005 -6.0600000000000005 -16.16 0 0 0
23 0 5 0 8.08 -8.08 -16.16 0 0 0
24 0 5 0 10.1 -6.0600000000000005 -16.16 0 0 0
25 0 5 0 -12.120000000000001 -4.04 -16.16 0 0 0
26 0 5 0 -10.1 -2.02 -16.16 0 0 0
27 0 5 0 -8.08 -4.04 -16.16 0 0 0
28 0 5 0 -6.0600000000000005 -2.02 -16.16 0 0 0
37 0 5 0 -12.120000000000001 0 -16.16 0 0 0
38 0 5 0 -10.1 2.02 -16.16 0 0 0
39 0 5 0 -8.08 0 -16.16 0 0 0
40 0 5 0 -6.0600000000000005 2.02 -16.16 0 0 0
49 0 5 0 -12.120000000000001 4.04 -16.16 0 0 0
51 0 5 0 -8.08 4.04 -16.16 0 0 0
29 0 5 0 -4.04 -4.04 -16.16 0 0 0
30 0 5 0 -2.02 -2.02 -16.16 0 0 0
31 0 5 0 0 -4.04 -16.16 0 0 0
32 0 5 0 2.02 -2.02 -16.16 0 0 0
33 0 5 0 4.04 -4.04 -16.16 0 0 0
41 0 5 0 -4.04 0 -16.16 0 0 0
42 0 5 0 -2.02 2.02 -16.16 0 0 0
43 0 5 0 0 0 -16.16 0 0 0
44 0 5 0 2.02 2.02 -16.16 0 0 0
45 0 5 0 4.04 0 -16.16 0 0 0
53 0 5 0 -4.04 4.04 -16.16 0 0 0
55 0 5 0 0 4.04 -16.16 0 0 0
57 0 5 0 4.04 4.04 -16.16 0 0 0
34 0 5 0 6.0600000000000005 -2.02 -16.16 0 0 0
35 0 5 0 8.08 -4.04 -16.16 0 0 0
36 0 5 0 10.1 -2.02 -16.16 0 0 0
46 0 5 0 6.0600000000000005 2.02 -16.16 0 0 0
47 0 5 0 8.08 0 -16.16 0 0 0
48 0 5 0 10.1 2.02 -16.16 0 0 0
59 0 5 0 8.08 4.04 -16.16 0 0 0
50 0 5 0 -10.1 6.0600000000000005 -16.16 0 0 0
52 0 5 0 -6.0600000000000005 6.0600000000000005 -16.16 0 0 0
61 0 5 0 -12.120000000000001 8.08 -16.16 0 0 0
62 0 5 0 -10.1 10.1 -16.16 0 0 0
63 0 5 0 -8.08 8.08 -16.16 0 0 0
64 0 5 0 -6.0600000000000005 10.1 -16.16 0 0 0
54 0 5 0 -2.02 6.0600000000000005 -16.16 0 0 0
56 0 5 0 2.02 6.0600000000000005 -16.16 0 0 0
65 0 5 0 -4.04 8.08 -16.16 0 0 0
66 0 5 0 -2.02 10.1 -16.16 0 0 0
67 0 5 0 0 8.08 -16.16 0 0 0
68 0 5 0 2.02 10.1 -16.16 0 0 0
69 0 5 0 4.04 8.08 -16.16 0 0 0
58 0 5 0 6.0600000000000005 6.0600000000000005 -16.16 0 0 0
60 0 5 0 10.1 6.0600000000000005 -16.16 0 0 0
70 0 5 0 6.0600000000000005 10.1 -16.16 0 0 0
71 0 5 0 8.08 8.08 -16.16 0 0 0
72 0 5 0 10.1 10.1 -16.16 0 0 0
73 0 5 0 -10.1 -12.120000000000001 -14.14 0 0 0
74 0 5 0 -12.120000000000001 -10.1 -14.14 0 0 0
75 0 5 0 -6.0600000000000005 -12.120000000000001 -14.14 0 0 0
76 0 5 0 -8.08 -10.1 -14.14 0 0 0
85 0 5 0 -10.1 -8.08 -14.14 0 0 0
86 0 5 0 -12.120000000000001 -6.0600000000000005 -14.14 0 0 0
87 0 5 0 -6.0600000000000005 -8.08 -14.14 0 0 0
88 0 5 0 -8.08 -6.0600000000000005 -14.14 0 0 0
145 0 5 0 -12.120000000000001 -12.120000000000001 -12.120000000000001 0 0 0
146 0 5 0 -10.1 -10.1 -12.120000000000001 0 0 0
147 0 5 0 -8.08 -12.120000000000001 -12.120000000000001 0 0 0
148 0 5 0 -6.0600000000000005 -10.1 -12.120000000000001 0 0 0
157 0 5 0 -12.120000000000001 -8.08 -12.120000000000001 0 0 0
158 0 5 0 -10.1 -6.0600000000000005 -12.120000000000001 0 0 0
159 0 5 0 -8.08 -8.08 -12.120000000000001 0 0 0
160 0 5 0 -6.0600000000000005 -6.0600000000000005 -12.120000000000001 0 0 0
529 33 1 -1.1128 -10.886446405784644 -8.089627831882657 -9.167893531542902 0 0 0
531 33 2 0.5564 -9.980337155281122 -8.35724193392835 -9.321455584941877 0 0 0
584 51 2 0.5564 -11.338877618178204 -9.997620848922246 -2.2405260881668383 0 0 0
585 51 2 0.5564 -11.837842088574414 -10.866087550518303 -1.1053184092580992 0 0 0
880 150 1 -1.1128 -8.467875049736179 -9.729087869598555 -8.807560332056887 0 0 0
881 150 2 0.5564 -8.778662432966138 -10.176373038311748 -8.020426281799255 0 0 0
882 150 2 0.5564 -7.5312888974830345 -9.601215033210405 -8.656938994458757 0 0 0
530 33 2 0.5564 -10.906981576211143 -7.8291792672314955 -8.24703692131724 0 0 0
583 51 1 -1.1128 -11.897735015710285 -10.75197226921924 -2.053803037699543 0 0 0
1313 294 2 0.5564 -10.404305142418334 -7.518640777584468 -5.705366394033516 0 0 0
452 7 2 0.5564 -5.211205602396508 -6.797199882925128 -7.954632727119549 0 0 0
1314 294 2 0.5564 -10.480976143302684 -8.334993124656776 -4.432737022405605 0 0 0
1312 294 1 -1.1128 -10.04982123614004 -8.303066287055849 -5.2867381594612 0 0 0
879 149 2 0.5564 -9.692392371459977 -8.210213175666446 -2.0097262429053253 0 0 0
438 2 2 0.5564 -11.929741465092928 -9.839911013753394 -9.089496220438273 0 0 0
877 149 1 -1.1128 -10.449289356455976 -8.227736516108225 -2.5954181486263344 0 0 0
436 2 1 -1.1128 11.556823873651325 -10.414107482771191 -9.2268515331332 -1 0 0
878 149 2 0.5564 -11.094218907661132 -7.661817837163573 -2.1711135662071275 0 0 0
1397 322 2 0.5564 11.593662069194313 -10.87402850911517 -4.217142773957 -1 0 0
899 156 2 0.5564 -5.385510251340794 -8.977334587063348 -9.507168884425653 0 0 0
1169 246 2 0.5564 -7.480621135882773 -10.614011030106939 -4.6321275726503455 0 1 0
1168 246 1 -1.1128 -7.518050229183717 -11.5246489448232 -4.924650202139002 0 1 0
1170 246 2 0.5564 -6.875980313875564 -11.575846710730632 -5.632715772643661 0 1 0
1325 298 2 0.5564 -8.231016023966605 -8.545357091535864 -4.586380489242577 0 0 0
1324 298 1 -1.1128 -7.346811033241006 -8.693381506850304 -4.250967094771842 0 0 0
1326 298 2 0.5564 -7.416887067394941 -8.531893081403707 -3.310093727451253 0 0 0
1037 202 2 0.5564 -9.937412856059693 -10.015164992487785 -6.239655559215951 0 0 0
437 2 2 0.5564 10.836479555763042 -9.81915389566494 -9.435096922393033 -1 0 0
2405 0 4 -1 -7.884777764929396 -8.796571674567867 -1.2900893948328322 0 0 0
1680 416 2 0.5564 -8.407095475954728 -10.709172064821493 -1.6099708213927943 0 1 0
1678 416 1 -1.1128 -8.530307963068422 -11.65436343311366 -1.697514086150842 0 1 0
1692 420 2 0.5564 -6.013565176180852 -9.173390462817164 -1.4843148198233371 0 1 0
596 55 2 0.5564 -6.504491799934938 -7.540405487405809 -5.372793208656723 0 0 0
894 154 2 0.5564 -5.9544267002554285 -6.190362673482907 -0.8267258189326062 0 0 0
1036 202 1 -1.1128 -9.54425638784614 -10.835561116611068 -6.537329865985845 0 0 0
1038 202 2 0.5564 -8.817891417106413 -10.98690147547466 -5.932580425968207 0 0 0
451 7 1 -1.1128 -4.781336282951281 -6.768489157227205 -8.809396090421043 0 0 0
595 55 1 -1.1128 -5.909884402589487 -6.962564749764417 -5.851097603374936 0 0 0
597 55 2 0.5564 -6.080331535813716 -6.091996932460365 -5.491524491830331 0 0 0
937 169 1 -1.1128 -11.167595312385004 -5.417412508203054 -9.219431751027273 0 0 0
1406 325 2 0.5564 -10.377508842688542 -5.863471451053283 -0.12071412197024405 0 0 0
900 156 2 0.5564 -4.363008667516796 -9.433333535774356 -8.48812489664518 0 0 0
898 156 1 -1.1128 -5.189503150787205 -9.68896577170687 -8.897747759305476 0 0 0
1683 417 2 0.5564 -4.731765456122763 -10.92572824688721 -2.390719901185396 0 1 0
1681 417 1 -1.1128 -4.523468066695084 -11.671362035277195 -2.953635786405436 0 1 0
1242 270 2 0.5564 -6.366854510358851 11.544042587035936 -8.045697846139303 0 0 0
1241 270 2 0.5564 -5.836141363148906 -11.281985907666508 -7.941174387524814 0 1 0
1240 270 1 -1.1128 -5.903145811461148 -12.10328594892901 -7.4541333596020785 0 1 0
939 169 2 0.5564 -11.302623782655251 -6.347274617312581 -9.402067039216277 0 0 0
955 175 1 -1.1128 -11.700787269755462 -6.493371787172344 -6.588517135435844 0 0 0
873 147 2 0.5564 -11.920956619865564 -5.981470626177038 -1.6543497472723203 0 0 0
1679 416 2 0.5564 -9.302217198476733 -11.846101607437998 -1.16495008168159 0 1 0
1405 325 1 -1.1128 -10.439603471953314 -5.150130802089154 -0.755947530773051 0 0 0
1396 322 1 -1.1128 11.13719173201824 -10.67221254317202 -5.033927434397701 -1 0 0
1889 486 2 0.5564 -6.43612980838374 -0.4082638855135427 -0.6488592000328484 0 0 0
1022 197 2 0.5564 -8.423695922048648 -4.3505305812773925 -9.718694843179616 0 0 0
1023 197 2 0.5564 -7.544200837150415 -5.560971721919626 -9.488009236282844 0 0 0
1021 197 1 -1.1128 -8.454940248066857 -5.303149917463706 -9.630534602041724 0 0 0
938 169 2 0.5564 -10.228675981235364 -5.281683520820051 -9.346868076959149 0 0 0
983 184 2 0.5564 -9.593195996156545 -4.190258782369562 -6.401356074475076 0 0 0
984 184 2 0.5564 -8.497493374033306 -4.43546885699754 -5.385874433418645 0 0 0
472 14 1 -1.1128 -6.725197289664512 -4.4804049336432 -5.180006709930357 0 0 0
1407 325 2 0.5564 -9.603335018421088 -4.690194324221116 -0.6828277401440254 0 0 0
474 14 2 0.5564 -6.6584277312272055 -4.000869918149486 -4.354282903716834 0 0 0
957 175 2 0.5564 11.91361473055829 -5.974359630977617 -6.083061542624491 -1 0 0
956 175 2 0.5564 -11.552853825008269 -5.982567531065314 -7.3843981299833406 0 0 0
535 35 1 -1.1128 -8.909947196436734 -3.0585738389212827 -0.16281335407745387 0 0 0
1685 418 2 0.5564 -4.186961274592811 -9.692400341634835 -0.19143370792467082 0 1 0
1453 341 1 -1.1128 -4.609871150710083 -4.2860040661578305 -1.3746012303702144 0 0 0
893 154 2 0.5564 -6.797198262718664 -7.279700356296351 -0.19825508166190706 0 0 0
948 172 2 0.5564 -11.850698395455062 -1.9874573408409681 -0.29937061240400287 0 0 0
659 76 2 0.5564 4.8390324630621055 6.00718804923954 -5.039551818035175 -1 0 0
1467 345 2 0.5564 -3.219374919055056 -4.149605742574646 -9.448480644593861 0 0 0
453 7 2 0.5564 -3.90118924229978 -7.107857574311936 -8.646907451535363 0 0 0
1691 420 2 0.5564 -4.641429997857342 -8.832934841710944 -2.0258222039886142 0 1 0
1690 420 1 -1.1128 -5.121168926680724 -9.512786892468322 -1.5526588065018176 0 1 0
814 128 1 -1.1128 -1.558822575923972 -6.806103459877597 -5.485920946885779 0 1 0
815 128 2 0.5564 -1.5973811241082436 -6.300515490971806 -4.67405524229118 0 1 0
816 128 2 0.5564 -1.0977727229796699 -6.236477240089909 -6.10170566998852 0 1 0
889 153 1 -1.1128 -3.1604658941297306 -11.618243334597631 -9.62981506524352 0 0 0
891 153 2 0.5564 -3.984754112202753 -11.158252866062544 -9.471101318871188 0 0 0
890 153 2 0.5564 -3.3993556601783177 11.694847317288817 -9.63145382691472 0 -1 0
448 6 1 -1.1128 -2.660904373825679 -8.516701261597412 -8.010624903400643 0 0 0
449 6 2 0.5564 -2.0119716906976106 -9.213812582611121 -8.10630729458714 0 0 0
450 6 2 0.5564 -2.4459883148481953 -8.101776108024298 -7.175232484774769 0 0 0
466 12 1 -1.1128 1.2896103968179338 -8.797512588352292 -7.374063007003159 0 0 0
468 12 2 0.5564 1.3255553865461323 -9.010066105006459 -6.441453188146043 0 0 0
77 0 5 0 -2.02 -12.120000000000001 -14.14 0 0 0
78 0 5 0 -4.04 -10.1 -14.14 0 0 0
79 0 5 0 2.02 -12.120000000000001 -14.14 0 0 0
80 0 5 0 0 -10.1 -14.14 0 0 0
82 0 5 0 4.04 -10.1 -14.14 0 0 0
89 0 5 0 -2.02 -8.08 -14.14 0 0 0
90 0 5 0 -4.04 -6.0600000000000005 -14.14 0 0 0
91 0 5 0 2.02 -8.08 -14.14 0 0 0
92 0 5 0 0 -6.0600000000000005 -14.14 0 0 0
94 0 5 0 4.04 -6.0600000000000005 -14.14 0 0 0
149 0 5 0 -4.04 -12.120000000000001 -12.120000000000001 0 0 0
150 0 5 0 -2.02 -10.1 -12.120000000000001 0 0 0
151 0 5 0 0 -12.120000000000001 -12.120000000000001 0 0 0
152 0 5 0 2.02 -10.1 -12.120000000000001 0 0 0
153 0 5 0 4.04 -12.120000000000001 -12.120000000000001 0 0 0
161 0 5 0 -4.04 -8.08 -12.120000000000001 0 0 0
162 0 5 0 -2.02 -6.0600000000000005 -12.120000000000001 0 0 0
163 0 5 0 0 -8.08 -12.120000000000001 0 0 0
164 0 5 0 2.02 -6.0600000000000005 -12.120000000000001 0 0 0
165 0 5 0 4.04 -8.08 -12.120000000000001 0 0 0
467 12 2 0.5564 0.5610584120280563 -9.318888958668905 -7.711125807754794 0 0 0
477 15 2 0.5564 0.8137336558667847 -10.702361240313554 -5.2156690450981955 0 0 0
532 34 1 -1.1128 1.4300546770025702 -5.993287422925239 -7.78076113797226 0 0 0
533 34 2 0.5564 1.360264735283126 -6.884298717303045 -7.438035514676893 0 0 0
541 37 1 -1.1128 0.4140672170543396 -8.583949708371213 -4.252130037099579 0 0 0
542 37 2 0.5564 0.1753809685741257 -8.314733215568516 -3.365122014147586 0 0 0
543 37 2 0.5564 -0.26276051207853574 -8.200219807207574 -4.809702863133897 0 0 0
547 39 1 -1.1128 -3.846031434749991 -7.430141634196196 -3.3364587535991403 0 0 0
548 39 2 0.5564 -3.38076568940671 -6.598237493090119 -3.248736784657861 0 0 0
549 39 2 0.5564 -4.132838968971293 -7.4495941503543985 -4.249472923750422 0 0 0
1039 203 1 -1.1128 -0.8121439950356423 -4.685326267531539 -7.4375209206776 0 0 0
484 18 1 -1.1128 -0.5215191491145568 -7.717058194607335 -1.8694859623196451 0 0 0
486 18 2 0.5564 -0.9428980257691602 -6.857729272350987 -1.854456721588554 0 0 0
832 134 1 -1.1128 -0.9716748301662894 -10.710767150870806 -8.051868196337347 0 1 0
833 134 2 0.5564 -1.6390108632176132 -11.040668708895513 -8.653581938874018 0 1 0
485 18 2 0.5564 -0.12760356866758313 -7.8063959327899815 -1.001683268235534 0 0 0
935 168 2 0.5564 1.9903954101629389 -6.475046712929677 -2.995470493450435 0 0 0
934 168 1 -1.1128 2.666391097842077 -7.078803034389893 -3.3032691071844464 0 0 0
936 168 2 0.5564 2.180459096882989 -7.831026394988331 -3.641295619533852 0 0 0
1041 203 2 0.5564 0.05666445654576584 -5.067961402382776 -7.559971315562892 0 0 0
1345 305 1 -1.1128 -2.0339600395518134 -10.51651026704662 -3.679594351676067 0 0 0
1347 305 2 0.5564 -2.913860016972023 -10.815287663440309 -3.4499382341042955 0 0 0
1346 305 2 0.5564 -2.052413469388567 -9.572485876978948 -3.522401032048622 0 0 0
1295 288 2 0.5564 6.1406749268796625 11.02069649641065 -0.009589954147310446 0 0 0
864 144 2 0.5564 3.1972373597644244 -8.518802945822037 -0.2653591980757734 0 1 0
475 15 1 -1.1128 1.5137038940439835 -11.287541713147421 -5.505215849969737 0 0 0
992 187 2 0.5564 1.570231408496862 -10.540234934010083 -2.5533020265480872 0 0 0
476 15 2 0.5564 1.0576220919195138 -12.056920962535548 -5.846209991192422 0 0 0
1270 280 1 -1.1128 -0.6121731323756939 -11.904309251071588 -1.753054349693854 0 1 0
1271 280 2 0.5564 -1.3375600087244244 11.806459100907622 -1.4214527682445934 0 0 0
947 172 2 0.5564 -11.544195759423117 -3.458261387147699 -0.11312677064765497 0 0 0
991 187 1 -1.1128 2.5034986282432756 -10.732655512287039 -2.462645226387725 0 0 0
834 134 2 0.5564 -1.0530591925178114 -11.265212331257668 -7.275853396732705 0 1 0
993 187 2 0.5564 2.7687362298402345 -10.266500952760124 -1.6698137809600537 0 0 0
534 34 2 0.5564 2.3649025990479293 -5.872800170401585 -7.947416630282046 0 0 0
553 41 1 -1.1128 4.292036644601124 -11.528766321874091 -6.2723061744121 0 0 0
555 41 2 0.5564 3.4383635095814338 -11.14628289030692 -6.069372915223784 0 0 0
633 67 2 0.5564 3.380874999222428 -6.0756027186329264 -4.6972559273455685 0 0 0
554 41 2 0.5564 4.650834243454664 -10.964957227952981 -6.957591441270267 0 0 0
999 189 2 0.5564 3.7550615274409154 -6.86244047563995 -1.584958279941331 0 0 0
2400 0 4 -1 -2.0415106102631073 -5.026669184052813 -3.1701340414837924 0 0 0
1454 341 2 0.5564 -4.027582570314477 -4.688157179374222 -2.019151216721177 0 0 0
973 181 1 -1.1128 1.2530332554949022 -5.018610073630415 -2.2864969764829337 0 0 0
975 181 2 0.5564 0.4057649256300899 -4.669778841183136 -2.5634180867157395 0 0 0
204 0 5 0 10.1 6.0600000000000005 -12.120000000000001 0 0 0
1234 268 1 -1.1128 9.656032524752153 7.865445534043903 -6.930362466500542 -1 0 0
1806 458 2 0.5564 11.127557081866891 0.4879269046027777 -0.14059113572873255 -1 0 0
1149 239 2 0.5564 11.772808241388589 3.469721255115441 -0.16795140078420093 0 0 0
1490 353 2 0.5564 -0.8068642443442988 -3.8701153181058747 -0.6677068359288469 0 0 0
1224 264 2 0.5564 6.294447957516721 6.479969588496484 -1.7600959869046031 0 0 0
869 146 2 0.5564 10.911360771995183 -11.474179545909687 -6.720606819009229 -1 0 0
1010 193 2 0.5564 10.6128855043433 -9.191831315055099 -6.31402381508504 -1 0 0
1011 193 2 0.5564 11.031818453940762 -7.754249193387115 -6.537067408514589 -1 0 0
512 27 2 0.5564 9.993256894139943 -8.251671773022132 -8.463081494238974 -1 0 0
511 27 1 -1.1128 9.793535451832653 -8.383426790549228 -9.389896015587457 -1 0 0
870 146 2 0.5564 10.915074677111576 -11.616345357091614 -8.227812938722526 -1 0 0
868 146 1 -1.1128 10.501316285631738 -11.960162596649994 -7.4360897679537095 -1 0 0
513 27 2 0.5564 9.354415940543406 -7.576214020963325 -9.657876410046077 -1 0 0
871 147 1 -1.1128 11.622501083337713 -6.579446985202882 -1.9254330893628269 -1 0 0
614 61 2 0.5564 2.577771526770078 -9.509789190251416 -8.14504614807002 0 0 0
1009 193 1 -1.1128 10.29105558679609 -8.351571407721714 -6.64055290260798 -1 0 0
1398 322 2 0.5564 10.255242136930862 -10.420421306859724 -4.760068322412778 -1 0 0
872 147 2 0.5564 11.299478035363117 -6.958010422129095 -1.107766940462901 -1 0 0
501 23 2 0.5564 8.052985521633763 -10.555540656221297 -9.74451511343981 0 0 0
1289 286 2 0.5564 8.260777811202964 -10.101304752417679 -3.573841285318777 0 1 0
613 61 1 -1.1128 3.363916920325988 -9.923862414470483 -8.50106672528245 0 0 0
615 61 2 0.5564 3.961921924564293 -9.196272139235056 -8.672047024433327 0 0 0
573 47 2 0.5564 5.876641393106563 -11.505757860679102 -3.3550115060770596 0 0 0
997 189 1 -1.1128 4.0655666244284046 -7.016769101806858 -0.6927693341470806 0 0 0
571 47 1 -1.1128 6.462701594371781 12.02765929120242 -3.0838916267687013 0 -1 0
632 67 2 0.5564 4.572966585073405 -5.145853301528452 -4.7771236426100305 0 0 0
631 67 1 -1.1128 3.91093837448913 -5.576047395454038 -5.318310794527257 0 0 0
1290 286 2 0.5564 8.007259161463539 -10.715304852183582 -4.934218929566743 0 1 0
1288 286 1 -1.1128 8.3300366673574 -9.919682795415559 -4.511097130495192 0 1 0
506 25 2 0.5564 6.226025932793645 -8.648613293522862 -7.628562436020237 -1 0 0
508 26 1 -1.1128 4.933940348356668 -7.766412603475187 -8.634304971005255 -1 0 0
509 26 2 0.5564 4.453656606026916 -7.05906967590875 -8.203926568597543 -1 0 0
510 26 2 0.5564 5.715850547156579 -7.343955745875254 -8.989802846756374 -1 0 0
482 17 2 0.5564 6.564558930272864 11.639291293929245 -6.112415401419013 0 -1 0
979 183 1 -1.1128 4.674801539139133 -10.313879776588575 -3.9551528130670723 0 0 0
980 183 2 0.5564 4.672036588694073 -10.767964611329017 -4.797786295740624 0 0 0
981 183 2 0.5564 3.8288074053961987 -10.53031107888919 -3.56312821675704 0 0 0
81 0 5 0 6.0600000000000005 -12.120000000000001 -14.14 0 0 0
83 0 5 0 10.1 -12.120000000000001 -14.14 0 0 0
84 0 5 0 8.08 -10.1 -14.14 0 0 0
93 0 5 0 6.0600000000000005 -8.08 -14.14 0 0 0
95 0 5 0 10.1 -8.08 -14.14 0 0 0
96 0 5 0 8.08 -6.0600000000000005 -14.14 0 0 0
154 0 5 0 6.0600000000000005 -10.1 -12.120000000000001 0 0 0
155 0 5 0 8.08 -12.120000000000001 -12.120000000000001 0 0 0
156 0 5 0 10.1 -10.1 -12.120000000000001 0 0 0
166 0 5 0 6.0600000000000005 -6.0600000000000005 -12.120000000000001 0 0 0
167 0 5 0 8.08 -8.08 -12.120000000000001 0 0 0
168 0 5 0 10.1 -6.0600000000000005 -12.120000000000001 0 0 0
2382 0 3 1 8.05972125308301 -7.968153014174638 -5.449264733599638 0 0 0
505 25 1 -1.1128 6.827270818788115 -9.175868381594675 -7.102502648016955 -1 0 0
507 25 2 0.5564 7.179783607403448 -9.82108916911083 -7.715411816837058 -1 0 0
565 45 1 -1.1128 4.78783406609233 12.020416680928047 -9.219232903266436 0 -1 0
566 45 2 0.5564 5.627237365560301 -11.916600044225042 -9.565405280120467 0 0 0
567 45 2 0.5564 4.224304019674083 -11.446286123450788 -9.245281237456885 0 0 0
568 46 1 -1.1128 9.198086254859 -6.471322715638955 -3.671258869432178 0 0 0
569 46 2 0.5564 8.99716449896601 -5.537273620793249 -3.612824265309839 0 0 0
570 46 2 0.5564 10.126399583818564 -6.531673919282738 -3.4458172404387293 0 0 0
574 48 1 -1.1128 5.906082035432481 -7.739768677824877 -4.577122468795045 0 0 0
575 48 2 0.5564 5.4222228334311335 -8.522756281335585 -4.31436138188063 0 0 0
576 48 2 0.5564 5.23617865660407 -7.146392753866363 -4.916779026908248 0 0 0
926 165 2 0.5564 7.172219543683358 -7.9098016593979965 -1.1235994748238103 0 0 0
927 165 2 0.5564 6.979077379011638 -7.531792116972301 -2.5767693001437975 0 0 0
925 165 1 -1.1128 6.697570650083436 -7.302452857176498 -1.6911117369686557 0 0 0
1301 290 2 0.5564 10.059478302079665 -10.57717181478395 -1.816627206651103 -1 0 0
481 17 1 -1.1128 7.2418885112532205 12.072284552938573 -5.59282582909043 0 -1 0
1300 290 1 -1.1128 9.118878125422283 -10.739708156366422 -1.8879367532828075 -1 0 0
1302 290 2 0.5564 8.71791325459028 -10.08186763417874 -1.3198655784318278 -1 0 0
572 47 2 0.5564 6.539786110493251 -12.10955308223891 -2.1353535407483473 0 0 0
500 23 2 0.5564 8.262071537628138 -11.644109131440224 -8.713400646554787 0 0 0
499 23 1 -1.1128 7.59268726172273 -11.06472379543513 -9.077364427726067 0 0 0
998 189 2 0.5564 5.014876125119798 -6.9065707047788685 -0.7466177188328897 0 0 0
560 43 2 0.5564 7.432604069844316 -5.508625622835345 -7.714596906723943 0 0 0
561 43 2 0.5564 8.741556964689275 -5.558145922548414 -6.955593921793951 0 0 0
559 43 1 -1.1128 7.95689923393027 -6.07232933045124 -7.1457514955180415 0 0 0
930 166 2 0.5564 4.393490309949672 -4.843246307804337 -0.9550757962345329 0 0 0
1361 310 2 0.5564 7.912013672042586 -5.48194880915071 -0.7890192739936454 0 0 0
550 40 1 -1.1128 5.88422156676166 -4.502245272855722 -8.41892076411224 0 0 0
551 40 2 0.5564 5.09374326590429 -4.0966759420007675 -8.775136906738451 0 0 0
1360 310 1 -1.1128 7.6078232279569455 -4.574750853323094 -0.7627070950116476 0 0 0
552 40 2 0.5564 6.595784210510431 -3.9249812799852335 -8.69582729252392 0 0 0
928 166 1 -1.1128 4.985780266192123 -4.209714742320016 -1.3601218384494642 0 0 0
1005 191 2 0.5564 8.475903414915836 -4.006299572641368 -2.3401217766459466 0 0 0
929 166 2 0.5564 5.837840665410548 -4.389717456891136 -0.9628488913269287 0 0 0
483 17 2 0.5564 7.077947555509748 11.782395806375488 -4.695429735509007 0 -1 0
801 123 2 0.5564 7.828237434570062 9.915352688411101 -8.875993303369667 -1 0 0
1294 288 1 -1.1128 5.362922415389655 11.488547730994561 -0.313642771893659 0 0 0
660 76 2 0.5564 6.14804958180334 6.714468705767717 -5.319059696065867 -1 0 0
799 123 1 -1.1128 8.412201066850832 10.373709194956433 -8.271734714923609 -1 0 0
982 184 1 -1.1128 -9.41071123245306 -4.1590010190812 -5.462231967718133 0 0 0
473 14 2 0.5564 -6.370705422612201 -3.879826600167971 -5.835653719599938 0 0 0
1965 511 2 0.5564 -5.344778259026081 1.574145309643236 -1.1612780515078471 0 0 0
1113 227 2 0.5564 -9.13782031664706 1.6138627092669744 -0.8377762582522911 0 0 0
949 173 1 -1.1128 11.915645068005551 -4.7145786488067465 -4.685599818624411 -1 0 0
951 173 2 0.5564 -11.379219755461598 -4.702962372643467 -4.836652765947134 0 0 0
1013 194 2 0.5564 -10.577334771233414 0.07012140346640222 -0.949668672485327 0 0 0
1024 198 1 -1.1128 -6.19656110777728 -0.2749388058413262 -9.341963206449643 0 0 0
1025 198 2 0.5564 -6.653839853148093 0.44670095327483395 -9.773662173912593 0 0 0
950 173 2 0.5564 11.764952689807235 -4.011602827002316 -4.053657857296158 -1 0 0
958 176 1 -1.1128 -6.096864038650158 -2.665297325719109 -3.108733024650108 0 0 0
1026 198 2 0.5564 -6.147851971633455 -0.012496896590580226 -8.422733338925106 0 0 0
960 176 2 0.5564 -5.413588915218148 -2.0136520992211264 -2.951489901609632 0 0 0
959 176 2 0.5564 -5.999784732860773 -3.292505505947856 -2.392201538978865 0 0 0
515 28 2 0.5564 -9.212918855846013 3.0874148386443556 -6.149768336986168 0 0 0
1112 227 2 0.5564 -8.21655875775786 0.5193573118143547 -1.3329835564739947 0 0 0
97 0 5 0 -10.1 -4.04 -14.14 0 0 0
98 0 5 0 -12.120000000000001 -2.02 -14.14 0 0 0
99 0 5 0 -6.0600000000000005 -4.04 -14.14 0 0 0
100 0 5 0 -8.08 -2.02 -14.14 0 0 0
109 0 5 0 -10.1 0 -14.14 0 0 0
110 0 5 0 -12.120000000000001 2.02 -14.14 0 0 0
111 0 5 0 -6.0600000000000005 0 -14.14 0 0 0
112 0 5 0 -8.08 2.02 -14.14 0 0 0
121 0 5 0 -10.1 4.04 -14.14 0 0 0
123 0 5 0 -6.0600000000000005 4.04 -14.14 0 0 0
169 0 5 0 -12.120000000000001 -4.04 -12.120000000000001 0 0 0
170 0 5 0 -10.1 -2.02 -12.120000000000001 0 0 0
171 0 5 0 -8.08 -4.04 -12.120000000000001 0 0 0
172 0 5 0 -6.0600000000000005 -2.02 -12.120000000000001 0 0 0
181 0 5 0 -12.120000000000001 0 -12.120000000000001 0 0 0
182 0 5 0 -10.1 2.02 -12.120000000000001 0 0 0
183 0 5 0 -8.08 0 -12.120000000000001 0 0 0
184 0 5 0 -6.0600000000000005 2.02 -12.120000000000001 0 0 0
193 0 5 0 -12.120000000000001 4.04 -12.120000000000001 0 0 0
195 0 5 0 -8.08 4.04 -12.120000000000001 0 0 0
580 50 1 -1.1128 -9.118754304235257 -2.8572545149967867 -8.235298672138063 0 0 0
581 50 2 0.5564 -9.422617362159436 -1.9512577196483247 -8.179896525851893 0 0 0
582 50 2 0.5564 -8.17366012684227 -2.8024829251003442 -8.093771569130105 0 0 0
655 75 1 -1.1128 -5.31798030608035 3.323595610591123 -5.628609156954979 0 0 0
656 75 2 0.5564 -5.777463628728058 3.5166112405156635 -4.811387123642953 0 0 0
657 75 2 0.5564 -5.103121083514863 4.182750463774622 -5.991817490296209 0 0 0
1030 200 1 -1.1128 -6.115449503583227 0.22300287403787833 -6.68849727330221 0 0 0
1031 200 2 0.5564 -6.752493360560189 -0.2503693974167041 -6.1534031996739875 0 0 0
1032 200 2 0.5564 -5.997873590001732 1.0593225730064877 -6.237967464596319 0 0 0
1044 204 2 0.5564 -9.107301202906608 2.025359986015368 -9.534356165373504 0 0 0
1111 227 1 -1.1128 -9.083350245558943 0.9003496735200187 -1.4735152336034738 0 0 0
1042 204 1 -1.1128 -8.25051209780546 2.133246746023969 -9.947278980420062 0 0 0
1043 204 2 0.5564 -7.906953860607687 2.946849580465661 -9.578157137787844 0 0 0
715 95 1 -1.1128 -8.78607132271509 1.853724112118189 -5.083366850534859 1 0 0
716 95 2 0.5564 -9.57903252180345 2.094022260180309 -4.604094055627466 1 0 0
717 95 2 0.5564 -8.711258145197787 0.9069243108843954 -4.964180274065972 1 0 0
736 102 1 -1.1128 -7.788564650491282 4.52973121092173 -8.595191971406633 0 0 0
737 102 2 0.5564 -6.956977114283854 4.242241404845781 -8.218305233088136 0 0 0
738 102 2 0.5564 -8.454826279527028 4.165989080584514 -8.012080544283265 0 0 0
723 97 2 0.5564 -11.184806523921862 2.18170093073401 -7.819950306937322 0 0 0
713 94 2 0.5564 -10.378446440134441 1.8399186212502696 -2.4067336782811983 1 0 0
1055 208 2 0.5564 -8.650304632169359 -1.3178634249220285 -4.5258640630346765 0 0 0
1054 208 1 -1.1128 -7.788314072473288 -1.0148532523688165 -4.811151648195162 0 0 0
1056 208 2 0.5564 -7.173700626443604 -1.446319169258934 -4.217586756804651 0 0 0
1028 199 2 0.5564 -7.597926737984929 2.7291968999661864 -3.760451751720536 0 0 0
669 79 2 0.5564 -6.205752246932134 -1.8647819618174708 -8.666557586023746 0 0 0
1027 199 1 -1.1128 -6.866947512684454 3.145601437088454 -3.303824460724891 0 0 0
1963 511 1 -1.1128 -6.072996863837365 1.1235532007602715 -1.5889417803999992 0 0 0
591 53 2 0.5564 -12.097626585239883 -3.5207800193330216 -9.061909748777355 0 0 0
712 94 1 -1.1128 -10.851063524261042 2.383814804406409 -3.0368462707485784 1 0 0
589 53 1 -1.1128 11.903975539582943 -2.7268876140873712 -8.583230437841452 -1 0 0
590 53 2 0.5564 -11.524705716616397 -2.2209394849510384 -8.538391069977548 0 0 0
722 97 2 0.5564 -11.706973416780396 2.5511373686155587 -9.192085151745147 0 0 0
721 97 1 -1.1128 -10.961972105632634 2.143901433776318 -8.750083766111851 0 0 0
1964 511 2 0.5564 -5.673948987767158 0.3538694592858774 -1.994625906723207 0 0 0
714 94 2 0.5564 -11.155351924358616 3.1338020228206345 -2.525808490130568 1 0 0
667 79 1 -1.1128 -6.3163849751145404 -2.734695809942905 -8.282834062259408 0 0 0
668 79 2 0.5564 -5.431412310929864 -3.098261819759502 -8.253251745558915 0 0 0
1470 346 2 0.5564 -4.625189580229394 0.1581921384468411 -5.624449348122056 0 0 0
1455 341 2 0.5564 -4.062781561224591 -3.6409883864931984 -0.9264052774196345 0 0 0
1469 346 2 0.5564 -4.449756774377255 1.5868401212934728 -5.155316530166903 0 0 0
666 78 2 0.5564 -4.65721517627185 2.399184208575548 -10.028249744590227 0 0 0
1828 466 1 -1.1128 -4.421045345697599 -0.7159949197709019 -2.439950884325378 0 0 0
588 52 2 0.5564 -9.611277737245043 -2.8891331550014505 -3.9354706222340914 0 0 0
586 52 1 -1.1128 -9.855631197949522 -2.066003980421335 -3.5124077135264637 0 0 0
728 99 2 0.5564 10.923391836453822 5.671056614084296 -4.474119781837027 -1 0 0
789 119 2 0.5564 12.108515821189055 1.804596673746604 -4.218464999164839 0 0 0
1029 199 2 0.5564 -6.563238696208898 2.4833418710271213 -2.683014437136627 0 0 0
946 172 1 -1.1128 11.993247416628378 -2.856777486391437 -0.35983073237640684 -1 0 0
609 59 2 0.5564 0.6037528338375266 -1.5597348372015347 -8.740917333343289 0 0 0
1466 345 2 0.5564 -2.364248142272378 -3.7887213550280436 -8.25248060148467 0 0 0
607 59 1 -1.1128 1.285033269881425 -2.20145529808051 -8.54020944804952 0 0 0
608 59 2 0.5564 0.849021012989012 -3.049228965398484 -8.626261512897232 0 0 0
621 63 2 0.5564 2.489605651594517 -4.288757182458632 -5.335225298829901 0 0 0
793 121 1 -1.1128 3.684081115015913 5.951123100266165 -3.4751034511534797 -1 0 0
665 78 2 0.5564 -4.148805440231435 2.355947670964126 -8.602926834520106 0 0 0
1465 345 1 -1.1128 -3.1594436092510305 -3.5321918816586844 -8.719481092035153 0 0 0
2389 0 3 1 4.775747515693599 -2.0481903332233005 -0.6482443836302831 0 0 0
1040 203 2 0.5564 -0.6992783171845527 -4.056929986217908 -6.724351041594233 0 0 0
795 121 2 0.5564 4.388952691997023 5.946610037868542 -2.8275175293785435 -1 0 0
620 63 2 0.5564 1.9186111014486311 -3.2872706926031596 -6.316492622051229 0 0 0
593 54 2 0.5564 -3.976627316815104 -0.41651688432250866 -9.271463340648511 0 0 0
594 54 2 0.5564 -3.2767390543608763 -1.7433703719820788 -9.067717479935613 0 0 0
592 54 1 -1.1128 -3.1322218104262913 -0.7978525277092672 -9.031058610648527 0 0 0