LAMMPS data file via write_data, version 2 Aug 2023, timestep = 12000, units = real

1647 atoms
5 atom types
790 bonds
1 bond types
395 angles
1 angle types

-12.120000000000001 12.120000000000001 xlo xhi
-12.120000000000001 12.120000000000001 ylo yhi
-20.2 20.2 zlo zhi

Masses

1 15.9994
2 1.008
3 28.99
4 35.453
5 26.9815

Atoms # full

1 0 5 0 -12.120000000000001 -12.120000000000001 -16.16 0 0 0
2 0 5 0 -10.1 -10.1 -16.16 0 0 0
3 0 5 0 -10.1 -12.120000000000001 -14.14 0 0 0
4 0 5 0 -12.120000000000001 -10.1 -14.14 0 0 0
5 0 5 0 -8.08 -12.120000000000001 -16.16 0 0 0
6 0 5 0 -6.0600000000000005 -10.1 -16.16 0 0 0
7 0 5 0 -6.0600000000000005 -12.120000000000001 -14.14 0 0 0
8 0 5 0 -8.08 -10.1 -14.14 0 0 0
9 0 5 0 -4.04 -12.120000000000001 -16.16 0 0 0
10 0 5 0 -2.02 -10.1 -16.16 0 0 0
11 0 5 0 -2.02 -12.120000000000001 -14.14 0 0 0
12 0 5 0 -4.04 -10.1 -14.14 0 0 0
13 0 5 0 -12.120000000000001 -8.08 -16.16 0 0 0
14 0 5 0 -10.1 -6.0600000000000005 -16.16 0 0 0
15 0 5 0 -10.1 -8.08 -14.14 0 0 0
16 0 5 0 -12.120000000000001 -6.0600000000000005 -14.14 0 0 0
17 0 5 0 -8.08 -8.08 -16.16 0 0 0
18 0 5 0 -6.0600000000000005 -6.0600000000000005 -16.16 0 0 0
19 0 5 0 -6.0600000000000005 -8.08 -14.14 0 0 0
20 0 5 0 -8.08 -6.0600000000000005 -14.14 0 0 0
21 0 5 0 -4.04 -8.08 -16.16 0 0 0
22 0 5 0 -2.02 -6.0600000000000005 -16.16 0 0 0
23 0 5 0 -2.02 -8.08 -14.14 0 0 0
24 0 5 0 -4.04 -6.0600000000000005 -14.14 0 0 0
25 0 5 0 -12.120000000000001 -4.04 -16.16 0 0 0
26 0 5 0 -10.1 -2.02 -16.16 0 0 0
27 0 5 0 -10.1 -4.04 -14.14 0 0 0
28 0 5 0 -12.120000000000001 -2.02 -14.14 0 0 0
29 0 5 0 -8.08 -4.04 -16.16 0 0 0
30 0 5 0 -6.0600000000000005 -2.02 -16.16 0 0 0
31 0 5 0 -6.0600000000000005 -4.04 -14.14 0 0 0
32 0 5 0 -8.08 -2.02 -14.14 0 0 0
33 0 5 0 -4.04 -4.04 -16.16 0 0 0
34 0 5 0 -2.02 -2.02 -16.16 0 0 0
35 0 5 0 -2.02 -4.04 -14.14 0 0 0
36 0 5 0 -4.04 -2.02 -14.14 0 0 0
37 0 5 0 -12.120000000000001 -12.120000000000001 -12.120000000000001 0 0 0
38 0 5 0 -10.1 -10.1 -12.120000000000001 0 0 0
39 0 5 0 -8.08 -12.120000000000001 -12.120000000000001 0 0 0
40 0 5 0 -6.0600000000000005 -10.1 -12.120000000000001 0 0 0
41 0 5 0 -4.04 -12.120000000000001 -12.120000000000001 0 0 0
42 0 5 0 -2.02 -10.1 -12.120000000000001 0 0 0
43 0 5 0 -12.120000000000001 -8.08 -12.120000000000001 0 0 0
44 0 5 0 -10.1 -6.0600000000000005 -12.120000000000001 0 0 0
45 0 5 0 -8.08 -8.08 -12.120000000000001 0 0 0
46 0 5 0 -6.0600000000000005 -6.0600000000000005 -12.120000000000001 0 0 0
47 0 5 0 -4.04 -8.08 -12.120000000000001 0 0 0
48 0 5 0 -2.02 -6.0600000000000005 -12.120000000000001 0 0 0
49 0 5 0 -12.120000000000001 -4.04 -12.120000000000001 0 0 0
50 0 5 0 -10.1 -2.02 -12.120000000000001 0 0 0
51 0 5 0 -8.08 -4.04 -12.120000000000001 0 0 0
52 0 5 0 -6.0600000000000005 -2.02 -12.120000000000001 0 0 0
53 0 5 0 -4.04 -4.04 -12.120000000000001 0 0 0
54 0 5 0 -2.02 -2.02 -12.120000000000001 0 0 0
462 10 2 0.5564 -1.4945347675651224 -9.699590171963525 -9.69681493655442 0 0 0
1282 284 1 -1.1128 -10.275538120254902 -11.263870215740956 -2.156498786175554 0 1 0
516 28 2 0.5564 -7.533849333167173 -1.4689553652501097 -9.618164257166884 0 0 0
524 31 2 0.5564 -5.455746594945948 -0.7215581230921091 -10.110547299881198 0 0 0
486 18 2 0.5564 -7.411785447902162 -5.293851201822489 -9.234401655310128 0 0 0
1140 236 2 0.5564 -9.395112644730613 -0.6285470933503454 -1.521678586254691 0 0 0
533 34 2 0.5564 -3.5708687149317657 -2.8675338080347696 -9.756308850790907 0 0 0
1549 373 1 -1.1128 -1.7459779379616556 -4.157294175266262 -9.680758012846388 0 0 0
482 17 2 0.5564 -8.88130967490919 -10.242444577750147 -9.999524431530162 0 0 0
483 17 2 0.5564 -8.195940540944406 -9.947865038060016 -8.682183388153245 0 0 0
1138 236 1 -1.1128 -9.023737184120133 -0.5522750900639006 -0.6427609429285246 0 0 0
1283 284 2 0.5564 -10.150835164165214 -10.801013447206428 -2.9850186456605767 0 1 0
617 62 2 0.5564 -8.513992986145356 -3.938680311169908 -4.904245591245673 0 0 0
478 16 1 -1.1128 -9.164972220952427 -3.947578307317378 -3.075851661566253 0 0 0
1431 333 2 0.5564 -11.385581505687341 -7.925902044605922 -6.614408610302383 1 0 0
594 54 2 0.5564 -8.603805915652394 -7.742523851120366 -3.2116019617771143 0 0 0
595 55 1 -1.1128 -6.0805255409269385 -10.811999187368317 -1.6124291761382836 0 0 0
1224 264 2 0.5564 -2.992904624968472 -5.605876796331739 -1.3111575642089006 0 1 0
513 27 2 0.5564 -9.130126138582227 -1.9274803206414057 -6.405177851550877 0 0 0
479 16 2 0.5564 -10.06010135285655 -4.069799042397549 -3.3921410846480606 0 0 0
1040 203 2 0.5564 -9.372279702860258 -0.14535480757054442 -3.854543429247948 0 0 0
480 16 2 0.5564 -9.009260072704516 -3.0063630850846814 -3.1539532562795625 0 0 0
2159 576 2 0.5564 -0.042378314466550424 -2.6718948979365873 -4.956811121243341 0 0 0
611 60 2 0.5564 -3.3213139623652177 -3.059312362132278 -0.9874515885866917 0 0 0
632 67 2 0.5564 -4.391477757351917 -4.448881215840559 -3.0512736333201325 0 0 0
448 6 1 -1.1128 -3.401242791293554 -9.411840599332697 -9.060521870337128 0 0 0
449 6 2 0.5564 -3.581331310331462 -9.462386221944293 -8.12177528166337 0 0 0
450 6 2 0.5564 -4.157051187518891 -8.951600690940966 -9.425439337740066 0 0 0
2389 0 3 1 -2.1129542587762273 -1.2119043340730684 -6.059775826009564 0 0 0
1550 373 2 0.5564 -1.6868245509767124 -3.340873575734289 -9.184582015255012 0 0 0
639 69 2 0.5564 -5.295083893961321 -7.799599444295389 -4.212340604924216 0 0 0
454 8 1 -1.1128 -6.193998931236622 -8.463654344418714 -9.529686504166452 0 0 0
455 8 2 0.5564 -6.224593264917291 -7.61109406680436 -9.963780156923152 0 0 0
456 8 2 0.5564 -6.670180578475605 -8.332690153307032 -8.709727728279805 0 0 0
638 69 2 0.5564 -4.278117645201244 -8.35900577957246 -3.240362254657688 0 0 0
637 69 1 -1.1128 -4.362008717441859 -7.992441085742636 -4.120604313134295 0 0 0
1429 333 1 -1.1128 -10.838770396531169 -7.173518876542147 -6.388245639640194 1 0 0
1126 232 1 -1.1128 -2.68829488683474 -6.48981281061316 -8.548585605131471 0 1 0
1558 376 1 -1.1128 -2.978233195634136 -5.738159652846477 -4.918751865797038 0 0 0
636 68 2 0.5564 -5.559322158313571 -4.770323010305842 -8.171771724732245 0 0 0
635 68 2 0.5564 -4.274534299032963 -5.482238744163584 -7.805174142838584 0 0 0
1006 192 1 -1.1128 -6.63813674915035 -11.00545256677123 -6.52782002584184 0 1 0
686 85 2 0.5564 -10.501101679991557 -6.323237648353675 -0.8202421024782863 0 0 0
650 73 2 0.5564 -11.426598613139742 -6.069178327356361 -3.472195710722487 0 0 0
1155 241 2 0.5564 -6.28907784963956 -1.2733292384786064 -1.228815652464233 0 0 0
634 68 1 -1.1128 -4.835892781474123 -4.751798024762782 -7.54524121364793 0 0 0
1007 192 2 0.5564 -5.699756199817118 -10.857353967788091 -6.41059953887404 0 1 0
1474 348 1 -1.1128 -7.5192061922743605 -6.006114234135523 -2.824575798804253 1 0 0
472 14 1 -1.1128 -7.694330001486587 -8.604521244182845 -7.108258510865473 0 0 0
473 14 2 0.5564 -7.365051627282326 -9.389947408923028 -6.671322179073756 0 0 0
474 14 2 0.5564 -7.4286820508833955 -7.883295122143396 -6.5377360159768285 0 0 0
565 45 1 -1.1128 -0.5713690723504943 -7.709090965515213 -7.237845625157266 0 0 0
2404 0 4 -1 -2.1967628485902164 -3.920843755523517 -2.4310526649123214 0 0 0
685 85 1 -1.1128 -10.75358827843653 -6.985276790662941 -1.4638154403688668 0 0 0
640 70 1 -1.1128 -6.358876669041874 -1.211672522453689 -5.420971426886785 0 0 0
566 45 2 0.5564 -0.46842456445699 -8.170136583993267 -8.070355023419793 0 0 0
481 17 1 -1.1128 -8.30379787033503 -10.63191389110803 -9.34299871525947 0 0 0
484 18 1 -1.1128 -6.819183891758392 -4.545564368307243 -9.30597088204939 0 0 0
485 18 2 0.5564 -7.359246210593303 -3.8460498251155486 -9.673726178641461 0 0 0
610 60 1 -1.1128 -3.8757706864938606 -2.5385322051531802 -0.40642003572606694 0 0 0
1467 345 2 0.5564 -11.365819543894935 -7.571486050671826 -9.27968400962389 1 0 0
461 10 2 0.5564 -0.23422189423723036 -10.532640551929957 -9.599173262280917 0 0 0
1560 376 2 0.5564 -2.7810816795834152 -5.173581557850424 -4.171346276129009 0 0 0
436 2 1 -1.1128 -10.54692184893194 -10.216923417662397 -4.797668068926124 0 0 0
536 35 2 0.5564 -6.041556864426165 -6.049407660025761 -5.539373949834781 0 0 0
1466 345 2 0.5564 -11.048417635437687 -9.038789337580885 -9.475068158176423 1 0 0
512 27 2 0.5564 -8.84858856986087 -1.254621261919028 -7.731787410709913 0 0 0
730 100 1 -1.1128 -10.554057032043492 -3.173691786460924 -0.42170948219219023 0 0 0
496 22 1 -1.1128 -3.060045840942647 -3.1776520951526495 -6.236886169804074 0 0 0
497 22 2 0.5564 -2.6637309239813796 -3.9607059145651893 -5.8547957075721095 0 0 0
498 22 2 0.5564 -3.8025109840000626 -3.507148136034353 -6.743255356525918 0 0 0
438 2 2 0.5564 -9.839608985673982 -9.60567219258472 -4.591965608706098 0 0 0
538 36 1 -1.1128 -4.3456626029934915 -0.42405404951959536 -7.27260714316387 0 0 0
511 27 1 -1.1128 -9.342319309760956 -1.1480580006864272 -6.918702552690152 0 0 0
495 21 2 0.5564 -4.188481897603552 -9.062793726721363 -5.476630508517353 0 0 0
1222 264 1 -1.1128 -3.280235119535998 -6.285231593459807 -0.7011164794100014 0 1 0
596 55 2 0.5564 -5.4154560530184455 -10.124427451306845 -1.6464855087602819 0 0 0
701 90 2 0.5564 -4.886195605778324 -5.637138426683147 -0.2456338431632843 0 0 0
508 26 1 -1.1128 -8.729329927863814 -6.360453002228946 -9.143958780269733 0 0 0
642 70 2 0.5564 -6.769843489237572 -2.073316961659252 -5.491024761272423 0 0 0
731 100 2 0.5564 -9.787888749438153 -3.2744788710527875 -0.9865634841064111 0 0 0
2399 0 4 -1 -1.1727888200642187 -1.2475503578924012 -8.28485249189917 0 0 0
616 62 1 -1.1128 -8.253481098435186 -3.4583805014622775 -5.690170407925138 0 0 0
2158 576 1 -1.1128 -0.6278946688775582 -2.0584930196046702 -4.512805590234139 0 0 0
1430 333 2 0.5564 -9.953424674353707 -7.435853887211942 -6.640387680409857 1 0 0
506 25 2 0.5564 -9.666435616523348 -3.5798693753378634 -8.735845178559488 0 0 0
593 54 2 0.5564 -9.95537802229847 -8.24020010230121 -2.745268985602487 0 0 0
648 72 2 0.5564 -8.00315983241278 -5.231100295918935 -0.27791231427409996 0 0 0
609 59 2 0.5564 -3.0687799854609272 -9.483638187969545 -2.071237925864889 0 0 0
510 26 2 0.5564 -9.235329148354035 -5.655875559164737 -8.739277066350045 0 0 0
437 2 2 0.5564 -10.169838514133865 -10.810561004427443 -5.447003424159935 0 0 0
1284 284 2 0.5564 -10.823232604203698 -10.677769294760425 -1.6342453497466345 0 1 0
445 5 1 -1.1128 -5.3226079353070554 -11.490493881838626 -9.276598873605602 0 0 0
618 62 2 0.5564 -8.26982925510657 -4.113261991756694 -6.38809229632311 0 0 0
633 67 2 0.5564 -5.481339984303207 -3.7509149316056933 -2.2658191057360924 0 0 0
494 21 2 0.5564 -3.3621175742388494 -10.203438854576639 -6.031559309525339 0 0 0
608 59 2 0.5564 -3.2944825547150813 -8.051930661664061 -1.634011243347282 0 0 0
1039 203 1 -1.1128 -9.774821616177107 -0.8424099606545703 -3.3365606649492654 0 0 0
1154 241 2 0.5564 -7.690836664879271 -1.783343777141765 -0.9702568236721218 0 0 0
1127 232 2 0.5564 -2.0833161428631986 -6.717577402517755 -7.842642328963175 0 1 0
460 10 1 -1.1128 -0.5632173491239134 -9.641219968793044 -9.483569573977846 0 0 0
507 25 2 0.5564 -10.736815615297473 -3.830785448928261 -7.695064913235483 0 0 0
532 34 1 -1.1128 -3.9226344237267243 -1.9950660298424763 -9.57940959727437 0 0 0
534 34 2 0.5564 -3.154729842257857 -1.465911960749698 -9.363651184058758 0 0 0
535 35 1 -1.1128 -6.668696354466707 -6.73709566995177 -5.315737080434615 0 0 0
509 26 2 0.5564 -9.315224755747435 -7.117195642719745 -9.126647083886256 0 0 0
537 35 2 0.5564 -7.276765186747896 -6.318464287461755 -4.70644854501191 0 0 0
2170 580 1 -1.1128 -8.451249485523277 -9.771247748074105 -0.023629251589804726 1 1 0
539 36 2 0.5564 -4.07898668674349 -1.0885381453906129 -7.9078844224209055 0 0 0
515 28 2 0.5564 -9.016128628803905 -1.3958908336794504 -9.917170898659306 0 0 0
687 85 2 0.5564 -11.022395674579682 -7.739555247238869 -0.9393741907860076 0 0 0
607 59 1 -1.1128 -3.7331343577513993 -8.899710787963393 -1.7053227046691495 0 0 0
514 28 1 -1.1128 -8.362124331454709 -1.9200970233315304 -9.454874298811662 0 0 0
2171 580 2 0.5564 -8.070639079289851 -9.953931883139733 -0.8826952673191223 1 1 0
1475 348 2 0.5564 -8.224974933759972 -5.362324074606519 -2.7641060228131535 1 0 0
1128 232 2 0.5564 -3.0140758625380504 -7.3318599384852705 -8.86647756989835 0 1 0
592 54 1 -1.1128 -9.16407638697945 -8.51860485685756 -3.206316795565488 0 0 0
1175 248 2 0.5564 -1.3420505390196535 -11.635726881533754 -5.870554711665145 0 1 0
2055 541 2 0.5564 -0.4884062930822876 -5.296414318324813 -2.909632532565674 0 0 0
1559 376 2 0.5564 -3.336680053087151 -6.535631695974898 -4.529153838820832 0 0 0
641 70 2 0.5564 -5.874932864410836 -1.109265991364575 -6.240449398204372 0 0 0
745 105 1 -1.1128 -3.7744247742092227 -1.1602862903646285 -3.90830674086932 0 0 0
2160 576 2 0.5564 -0.9666148120577607 -2.5492920790708484 -3.764061388834663 0 0 0
597 55 2 0.5564 -5.7431337949661305 -11.440848647418989 -0.9745048540834403 0 0 0
1465 345 1 -1.1128 -10.683502728004484 -8.225213637479806 -9.126981628341083 1 0 0
493 21 1 -1.1128 -4.055803337265755 -9.587093792840772 -6.266401194011621 0 0 0
2401 0 4 -1 -11.509447481209394 -11.170466018354057 -9.044709374023727 1 1 0
1455 341 2 0.5564 -11.78001573442195 -5.663995291496697 -9.013230645435085 1 0 0
631 67 1 -1.1128 -5.335944359001244 -4.293624390908652 -3.0407763154695586 0 0 0
1008 192 2 0.5564 -6.949313871830956 -11.270056755077514 -5.662149543833328 0 1 0
1025 198 2 0.5564 -6.8373109177780735 -11.46524992981557 -2.995243854378331 0 1 0
1153 241 1 -1.1128 -6.781069826746511 -2.0725215726696193 -1.0404876275665427 0 0 0
747 105 2 0.5564 -3.7123636642521953 -1.9530542827946387 -3.3754843710127327 0 0 0
523 31 1 -1.1128 -6.185930281937937 -0.13226748405097438 -9.921336551363853 0 0 0
489 19 2 0.5564 -0.9077315573601189 -9.893419029796034 -2.5778790513174235 0 0 0
505 25 1 -1.1128 -9.98481022922764 -4.2414859208277695 -8.121733099428798 0 0 0
651 73 2 0.5564 -11.252386708041044 -5.95329142575587 -4.971568045135882 0 0 0
1476 348 2 0.5564 -6.7214390479838055 -5.48179512562711 -2.894496786779047 1 0 0
446 5 2 0.5564 -6.128283325874795 -11.112435751607839 -9.629006461605472 0 0 0
649 73 1 -1.1128 -11.30294398313838 -5.428573403530463 -4.17260085222547 0 0 0
487 19 1 -1.1128 -1.631486819110383 -10.41368885747249 -2.2289807432529387 0 0 0
1041 203 2 0.5564 -10.665581161042763 -0.9126538039042658 -3.679846737893771 0 0 0
746 105 2 0.5564 -4.673490419252901 -1.1616903108019985 -4.236805736191268 0 0 0
488 19 2 0.5564 -1.4751518965365766 -10.439650796881029 -1.2849900148854425 0 0 0
1104 224 2 0.5564 -10.016661286801098 -11.630410658589277 -7.317036966015563 0 1 0
1551 373 2 0.5564 -2.208545922169446 -4.75938943597326 -9.09788160687427 0 0 0
447 5 2 0.5564 -4.671871786478585 -10.794160795732726 -9.365450512312552 0 0 0
644 71 2 0.5564 -0.09484105018629796 -2.955482184880594 -7.486307382447146 0 0 0
612 60 2 0.5564 -3.5671187059079164 -1.6398633400600708 -0.5220058426633136 0 0 0
1162 244 1 -1.1128 -0.06893105096364373 -2.9718182302547116 -0.3130828958296245 0 0 0
1583 384 2 0.5564 -11.820475361884093 -9.758077492961945 -5.9341465266961615 1 0 0
1223 264 2 0.5564 -2.475975150358072 -6.579750466711266 -0.27373322849374837 0 1 0
1164 244 2 0.5564 -0.7588982648564526 -3.213025184607521 -0.9311424246723202 0 0 0
1174 248 1 -1.1128 -2.2626936696416564 -11.692676135171318 -5.614810964135656 0 1 0
1089 219 2 0.5564 -4.52359868634292 -0.1471825558613598 -2.417417659335153 0 0 0
1024 198 1 -1.1128 -6.922004473514581 -11.684077639391841 -3.923238101549413 0 1 0
2172 580 2 0.5564 -9.393247408523893 -9.717843375827767 -0.18493788257145236 1 1 0
1102 224 1 -1.1128 -9.489002917391156 -11.964911260282962 -6.591835021248047 0 1 0
567 45 2 0.5564 -0.4442129846773664 -8.384850998546886 -6.571953611106167 0 0 0
1512 360 2 0.5564 -12.037612353296106 -1.0510584165865364 -9.609406011666776 1 0 0
929 166 2 0.5564 -11.12793752118944 -0.2722874064466605 -6.5652097072570905 0 0 0
677 82 2 0.5564 -1.4498646105930204 -12.107823766122504 -2.655581506026014 0 0 0
1492 354 1 -1.1128 -10.29610222768147 -0.03952610137239191 -9.527776350532502 1 0 0
1635 401 2 0.5564 -0.1460570939910951 -6.736810093871042 -0.04293737871642911 0 0 0
2396 0 4 -1 -8.66597470516484 -3.9807948900118353 6.662070306761907 0 0 0
2395 0 4 -1 -4.873661336832091 -6.623574323085366 6.987570544658153 0 0 0
598 56 1 -1.1128 -11.775956596031529 -4.972619082934899 1.7193904417151131 0 0 0
668 79 2 0.5564 -6.175728199674541 -5.561735434598606 3.77612704853093 0 0 0
656 75 2 0.5564 -10.63767815283562 -6.333139795445292 2.530636389278854 0 0 0
771 113 2 0.5564 -8.080017780219183 -8.539599695077628 6.899824927391681 0 0 0
790 120 1 -1.1128 -8.220770783443054 -9.354670963601745 8.631655304471018 0 0 0
788 119 2 0.5564 -0.36020194642749687 -11.511787169222238 7.246536015747621 0 0 0
703 91 1 -1.1128 -4.125149651037955 -2.4187846216318203 6.261253875365445 0 0 0
2315 628 2 0.5564 -11.278190814572625 -10.392712013517876 0.8293868953402425 1 1 0
66 0 5 0 -4.04 -10.1 14.14 0 0 0
1403 324 2 0.5564 -3.6802292588736614 -7.354044589572553 9.907225542474752 0 1 0
600 56 2 0.5564 -12.05768012644888 -4.242533857560707 2.270606757560587 0 0 0
655 75 1 -1.1128 -10.489473830366181 -7.051458162224329 3.1456870437256383 0 0 0
791 120 2 0.5564 -8.765337342238162 -10.070553905089744 8.95905525727093 0 0 0
766 112 1 -1.1128 -8.420600407320423 -6.8429583595043955 9.151151503007751 0 0 0
555 41 2 0.5564 -5.403264302637484 -9.543312695023207 0.825363172128176 0 0 0
1384 318 1 -1.1128 -2.681890851343087 -9.296366132774404 8.957435972157906 0 1 0
1332 300 2 0.5564 -7.6766370103106825 -10.264248324427923 3.587817926450153 0 1 0
657 75 2 0.5564 -9.695075853034105 -7.480076648471996 2.82717287324852 0 0 0
1667 412 2 0.5564 -3.612050294896022 -2.5983743751042385 8.214655420186173 0 0 0
691 87 1 -1.1128 -6.791316598964666 -3.756625623950131 4.303410566886283 0 0 0
693 87 2 0.5564 -7.234088469673817 -3.679711388042236 3.458264740502847 0 0 0
1666 412 1 -1.1128 -3.614764623794553 -2.161454595484754 9.0663162484036 0 0 0
2316 628 2 0.5564 -12.070490246078368 -9.339351111286256 0.08468049203352139 1 1 0
61 0 5 0 -6.0600000000000005 -12.120000000000001 14.14 0 0 0
782 117 2 0.5564 -3.6984752091505233 -5.213057652143123 5.852430880150837 0 0 0
845 138 2 0.5564 -10.896667457128752 -0.2771304444326452 9.094211053940928 0 0 0
767 112 2 0.5564 -8.46634054107305 -7.796352136939178 9.079163526582041 0 0 0
817 129 1 -1.1128 -3.1485043977150355 -0.22845735602358805 3.911866258701128 0 0 0
723 97 2 0.5564 -7.826591588331299 -2.222206674396222 1.8612005079216627 0 0 0
1241 270 2 0.5564 -4.788557264985699 -11.25010745769753 6.038389145713666 0 1 0
777 115 2 0.5564 -5.465594562527376 -10.906008096573025 9.442875364232732 0 0 0
492 20 2 0.5564 -3.8940832414030138 -4.325544463247315 3.4032796835769807 0 0 0
667 79 1 -1.1128 -6.205594512652939 -6.452623864957601 3.427331620500572 0 0 0
698 89 2 0.5564 -3.102046427971566 -11.100394798651617 0.7610339358066783 0 0 0
2300 623 2 0.5564 -11.922266918122718 -7.777053531061968 3.106592216661815 1 1 0
2385 0 3 1 -6.995315974212211 -5.388505864992019 7.895788115188665 0 1 0
669 79 2 0.5564 -5.333567598459129 -6.807426275476138 3.6002965879053477 0 0 0
1077 215 2 0.5564 -10.350554361367324 -0.3090516103152757 1.9782172830543014 0 0 0
880 150 1 -1.1128 -0.925430296800873 -1.1787239618017913 9.333773045507723 0 0 0
67 0 5 0 -12.120000000000001 -8.08 12.120000000000001 0 0 0
1262 277 2 0.5564 -9.959221856288666 -2.4600852783177767 6.146671220253593 0 0 0
725 98 2 0.5564 -5.428632410201799 -0.9199899325199589 2.750210279692725 0 0 0
721 97 1 -1.1128 -7.5163943774784725 -3.127748857469985 1.8630444287634003 0 0 0
675 81 2 0.5564 -4.50694558404646 -8.476916156707516 2.92546093337938 0 0 0
1320 296 2 0.5564 -10.38945741957361 -6.685897365502482 5.049830396445429 0 1 0
700 90 1 -1.1128 -5.685152735373744 -5.23399726110986 0.09403746649707422 0 0 0
704 91 2 0.5564 -4.733069796182695 -1.858999175029166 5.778236104921237 0 0 0
1240 270 1 -1.1128 -5.241487945727122 -10.456166935743864 6.322545300550197 0 1 0
874 148 1 -1.1128 -9.85893041018748 -4.320121838764671 9.595315845367562 0 0 0
781 117 1 -1.1128 -3.258088253673821 -4.636879958832981 5.227682549665094 0 0 0
724 98 1 -1.1128 -5.272833474316325 -0.9816451988544687 1.807789077258866 0 0 0
1147 239 1 -1.1128 -8.8178503930934 -0.604362384896547 3.0817376222555724 0 0 0
1393 321 1 -1.1128 -11.906161431453539 -10.031930720943768 6.789425090100756 0 1 0
835 135 1 -1.1128 -1.8799734806803736 -7.518931904669859 6.720518225922904 0 0 0
692 87 2 0.5564 -7.482598743946483 -3.615300392411102 4.9502413136077665 0 0 0
1386 318 2 0.5564 -2.2838275044493472 -8.78823940871543 8.250622500771074 0 1 0
783 117 2 0.5564 -2.449887948771308 -4.376684925826446 5.669658462597024 0 0 0
858 142 2 0.5564 -6.630675289132645 -0.7104606368836983 5.251885849924169 0 0 0
857 142 2 0.5564 -6.4591792747494825 -1.9542622553724458 4.406046165372285 0 0 0
856 142 1 -1.1128 -5.994244536817829 -1.1736509888366977 4.70723518993861 0 0 0
837 135 2 0.5564 -2.7814342071669698 -7.197753439263937 6.741646891070372 0 0 0
1387 319 1 -1.1128 -11.701959785390317 -11.09852748820735 2.785053443325107 0 1 0
1261 277 1 -1.1128 -10.510555105134216 -1.682464825990497 6.233677115941788 0 0 0
1385 318 2 0.5564 -2.092738491223814 -10.040919034520078 9.07897878386814 0 1 0
705 91 2 0.5564 -4.098302143702156 -3.233263203318482 5.759121326847606 0 0 0
765 111 2 0.5564 -9.036269436441861 -9.817934207726704 5.591936159945471 0 0 0
807 125 2 0.5564 -2.1250049629027403 -1.4635436451314152 1.6763029877649465 0 0 0
81 0 5 0 -10.1 -4.04 14.14 0 0 0
491 20 2 0.5564 -3.1913572531738073 -3.3006348005796355 2.5386227468039424 0 0 0
811 127 1 -1.1128 -8.031635343359898 -1.9899090807827462 8.848465424834364 0 0 0
813 127 2 0.5564 -8.23253497503701 -2.457560444999645 8.037803086290657 0 0 0
792 120 2 0.5564 -7.322392837958142 -9.663489996517516 8.749042501742917 0 0 0
1075 215 1 -1.1128 -11.014808623597052 -0.21304200221624733 1.2957362821608904 0 0 0
1695 421 2 0.5564 -2.3689336370237104 -4.7180941783059565 2.1987635501958334 0 0 0
1318 296 1 -1.1128 -10.423244126158279 -6.416987872186936 5.9678605069293305 0 1 0
876 148 2 0.5564 -10.608728222027247 -4.8925807214597565 9.757571651685176 0 0 0
875 148 2 0.5564 -9.673495469676103 -4.426185908161564 8.662258179705187 0 0 0
2377 0 3 1 -5.5497987371568405 -3.0722119614825565 0.9095940835881722 0 0 0
1106 225 2 0.5564 -8.110803968560631 -8.45745318563916 1.0898262969991008 0 1 0
581 50 2 0.5564 -1.7108925213876989 -8.40421934070072 4.9100357705308735 0 0 0
647 72 2 0.5564 -8.609364233017125 -6.191074427597976 0.7235174421628848 0 0 0
1769 446 2 0.5564 -1.1040666172152998 -1.4003071801569367 5.95740782653138 0 0 0
688 86 1 -1.1128 -5.87342210076049 -4.249930748348776 9.605469895951874 0 0 0
775 115 1 -1.1128 -5.548333778389857 -10.038917080877118 9.045962085210997 0 0 0
1404 324 2 0.5564 -4.032177134945098 -6.45207589073812 8.74340406403326 0 1 0
671 80 2 0.5564 -11.57497494814178 -2.4281032444430535 9.19001455216594 0 0 0
836 135 2 0.5564 -1.390110942453475 -6.894445309195551 7.2555727756989175 0 0 0
776 115 2 0.5564 -4.712548546004679 -9.6100843217961 9.229804870630396 0 0 0
1330 300 1 -1.1128 -6.842183402946929 -10.07255116677432 4.0158033272031135 0 1 0
2390 0 3 1 -5.85736147232265 -8.381233584472609 5.285532531698544 1 1 0
805 125 1 -1.1128 -1.9562196354920611 -2.0186139603110416 2.4376441380947895 0 0 0
770 113 2 0.5564 -8.799132084624144 -7.4243759118531685 6.171096018251282 0 0 0
1319 296 2 0.5564 -10.195072784389206 -5.487479957015681 5.954212943953621 0 1 0
490 20 1 -1.1128 -3.8588862140590052 -3.986025236040134 2.50900918733576 0 0 0
702 90 2 0.5564 -6.018540823622634 -5.8635659213033335 0.7333554936630459 0 0 0
806 125 2 0.5564 -2.4574447521140073 -1.6138579625844047 3.1455832962151278 0 0 0
580 50 1 -1.1128 -1.5293492304989167 -8.773954632982454 4.045992298872811 0 0 0
1263 277 2 0.5564 -9.92121107555771 -0.949363244048676 6.056286172199105 0 0 0
554 41 2 0.5564 -4.306601281253396 -8.60945122824794 0.3593929021106533 0 0 0
1402 324 1 -1.1128 -3.4703195927712605 -6.505814253479503 9.516488929305048 0 1 0
769 113 1 -1.1128 -8.112799602998885 -8.08221418161317 6.059613152079138 0 0 0
673 81 1 -1.1128 -4.144590537909464 -8.191973612046855 3.7643521468640624 0 0 0
1642 404 1 -1.1128 -2.420816944637144 -11.743657830687953 4.32682414521329 0 0 0
1242 270 2 0.5564 -5.254863891584731 -10.516338999305873 7.277759215961116 0 1 0
1634 401 2 0.5564 -0.9459724839653999 -6.5028157444898085 1.220896956727967 0 0 0
553 41 1 -1.1128 -4.941638105058599 -8.73937364865387 1.063722756785343 0 0 0
674 81 2 0.5564 -3.1997163957700296 -8.152118426636815 3.6165133880447944 0 0 0
1321 297 1 -1.1128 -8.286170997221538 -11.78947883922771 2.085253764804258 0 1 0
1693 421 1 -1.1128 -1.522067123621228 -5.159711403818616 2.2622050567485275 0 0 0
690 86 2 0.5564 -5.415351349520828 -4.9679998559335425 10.042253803962943 0 0 0
699 89 2 0.5564 -1.9154865510520167 -10.281217699044767 1.2224679694158214 0 0 0
2314 628 1 -1.1128 -11.244662761217073 -9.822760726487061 0.061100971624931756 1 1 0
1107 225 2 0.5564 -7.345513738755271 -7.743295974682231 2.183539317461582 0 1 0
1331 300 2 0.5564 -6.8456445923140326 -10.616932826551269 4.803120690902373 0 1 0
646 72 1 -1.1128 -8.689144783821968 -5.298831721319265 0.3862183048530336 0 0 0
697 89 1 -1.1128 -2.1681635920202402 -10.964178098183133 0.6012180741797802 0 0 0
1837 469 1 -1.1128 -0.8233389299376225 -5.980171954777231 9.08538925475502 0 0 0
1323 297 2 0.5564 -8.48061381080462 -11.37413919098737 1.2450648792403682 0 1 0
1148 239 2 0.5564 -8.025621451920623 -0.1671073562737728 2.7696266177557374 0 0 0
728 99 2 0.5564 -11.98859069636869 -5.778394193606518 6.406923473347655 0 0 0
753 107 2 0.5564 -0.7199748915596212 -4.99932499625175 7.311677120233007 0 0 0
882 150 2 0.5564 -0.8516859058392763 -1.260393066644101 8.382918046689623 0 0 0
82 0 5 0 -12.120000000000001 -2.02 14.14 0 0 0
764 111 2 0.5564 -10.451914527374354 -10.243996671360186 5.917995967991254 0 0 0
908 159 2 0.5564 -4.667041912478522 -0.3392701347974508 8.959248753910334 0 0 0
1219 263 1 -1.1128 -4.635392516022109 -12.006132143996235 0.6492604627858698 0 1 0
1838 469 2 0.5564 -1.689295495987264 -6.246414642227191 9.394368184094645 0 0 0
732 100 2 0.5564 -10.485641885900973 -3.8929888091111775 0.20611476603405435 0 0 0
1644 404 2 0.5564 -3.294083939887431 -12.035229269593552 4.588784234382413 0 0 0
1076 215 2 0.5564 -10.557979595908746 -0.43232924229654435 0.48366964921216965 0 0 0
751 107 1 -1.1128 -0.9842922836859189 -4.435408037049608 6.584789250085005 0 0 0
1105 225 1 -1.1128 -8.209282254656879 -7.7957265500041455 1.7744093399186458 0 1 0
1768 446 1 -1.1128 -0.6985674425107181 -1.8020593832041498 6.725781104209438 0 0 0
689 86 2 0.5564 -5.207008378667514 -3.571629654861051 9.495775214573948 0 0 0
582 50 2 0.5564 -1.6664471560415555 -9.715102345997199 4.154055345945693 0 0 0
763 111 1 -1.1128 -9.669755470945542 -10.51919347575203 5.439743062215663 0 0 0
787 119 1 -1.1128 -0.8212922933375958 -11.40595194714631 8.078657683957447 0 0 0
881 150 2 0.5564 -1.1375297807729563 -0.2568000116065882 9.479727479829599 0 0 0
672 80 2 0.5564 -11.359419514664818 -1.4988278744634318 8.01448127833679 0 0 0
722 97 2 0.5564 -8.108143072183971 -3.58534843057716 1.2658268604298195 0 0 0
812 127 2 0.5564 -7.879917633207922 -2.6811414960595843 9.49298958571041 0 0 0
1668 412 2 0.5564 -2.692392672494366 -2.123031050482971 9.319270574445197 0 0 0
1633 401 1 -1.1128 -0.9082368591789983 -7.055683355176069 0.440419346882547 0 0 0
1694 421 2 0.5564 -1.4418201340358439 -5.393135966182877 3.1870323320297476 0 0 0
752 107 2 0.5564 -0.910619421901673 -3.546335754094668 6.931712527785883 0 0 0
58 0 5 0 -12.120000000000001 -10.1 14.14 0 0 0
60 0 5 0 -6.0600000000000005 -10.1 12.120000000000001 0 0 0
768 112 2 0.5564 -9.216652421362053 -6.599499054306685 9.623656139666299 0 0 0
62 0 5 0 -8.08 -10.1 14.14 0 0 0
85 0 5 0 -6.0600000000000005 -4.04 14.14 0 0 0
108 0 5 0 -2.02 -2.02 16.16 0 0 0
107 0 5 0 -4.04 -4.04 16.16 0 0 0
80 0 5 0 -10.1 -2.02 12.120000000000001 0 0 0
70 0 5 0 -12.120000000000001 -6.0600000000000005 14.14 0 0 0
99 0 5 0 -8.08 -8.08 16.16 0 0 0
86 0 5 0 -8.08 -2.02 14.14 0 0 0
106 0 5 0 -6.0600000000000005 -2.02 16.16 0 0 0
88 0 5 0 -2.02 -2.02 12.120000000000001 0 0 0
83 0 5 0 -8.08 -4.04 12.120000000000001 0 0 0
74 0 5 0 -8.08 -6.0600000000000005 14.14 0 0 0
73 0 5 0 -6.0600000000000005 -8.08 14.14 0 0 0
100 0 5 0 -6.0600000000000005 -6.0600000000000005 16.16 0 0 0
72 0 5 0 -6.0600000000000005 -6.0600000000000005 12.120000000000001 0 0 0
97 0 5 0 -12.120000000000001 -8.08 16.16 0 0 0
69 0 5 0 -10.1 -8.08 14.14 0 0 0
77 0 5 0 -2.02 -8.08 14.14 0 0 0
90 0 5 0 -4.04 -2.02 14.14 0 0 0
79 0 5 0 -12.120000000000001 -4.04 12.120000000000001 0 0 0
76 0 5 0 -2.02 -6.0600000000000005 12.120000000000001 0 0 0
55 0 5 0 -12.120000000000001 -12.120000000000001 12.120000000000001 0 0 0
93 0 5 0 -8.08 -12.120000000000001 16.16 0 0 0
98 0 5 0 -10.1 -6.0600000000000005 16.16 0 0 0
96 0 5 0 -2.02 -10.1 16.16 0 0 0
92 0 5 0 -10.1 -10.1 16.16 0 0 0
63 0 5 0 -4.04 -12.120000000000001 12.120000000000001 0 0 0
68 0 5 0 -10.1 -6.0600000000000005 12.120000000000001 0 0 0
78 0 5 0 -4.04 -6.0600000000000005 14.14 0 0 0
56 0 5 0 -10.1 -10.1 12.120000000000001 0 0 0
59 0 5 0 -8.08 -12.120000000000001 12.120000000000001 0 0 0
95 0 5 0 -4.04 -12.120000000000001 16.16 0 0 0
64 0 5 0 -2.02 -10.1 12.120000000000001 0 0 0
71 0 5 0 -8.08 -8.08 12.120000000000001 0 0 0
87 0 5 0 -4.04 -4.04 12.120000000000001 0 0 0
91 0 5 0 -12.120000000000001 -12.120000000000001 16.16 0 0 0
65 0 5 0 -2.02 -12.120000000000001 14.14 0 0 0
103 0 5 0 -12.120000000000001 -4.04 16.16 0 0 0
75 0 5 0 -4.04 -8.08 12.120000000000001 0 0 0
102 0 5 0 -2.02 -6.0600000000000005 16.16 0 0 0
105 0 5 0 -8.08 -4.04 16.16 0 0 0
104 0 5 0 -10.1 -2.02 16.16 0 0 0
101 0 5 0 -4.04 -8.08 16.16 0 0 0
89 0 5 0 -2.02 -4.04 14.14 0 0 0