LAMMPS data file via write_data, version 20 Nov 2019, timestep = 31

3000 atoms
5 atom types

-3.3321069124248581e+01 3.3321069124248581e+01 xlo xhi
-7.9370052598409968e+00 7.9370052598409968e+00 ylo yhi
-7.9370052598409968e+00 7.9370052598409968e+00 zlo zhi

Masses

1 1
2 1
3 1
4 1
5 1

PairIJ Coeffs # lj/cut

1 1 1 1 2.5
1 2 1 1 2.5
1 3 1 1 2.5
1 4 0.8 1 2.5
1 5 1.41421 1.73205 2.5
2 2 1 1 2.5
2 3 1 1 2.5
2 4 0.8 1 2.5
2 5 0.1 3 2.5
3 3 1 1 2.5
3 4 0.8 1 2.5
3 5 1.41421 1.73205 2.5
4 4 1 1 2.5
4 5 1.41421 1.73205 2.5
5 5 2 3 2.5

Atoms # atomic

1 1 -3.3313767079409530e+01 -7.9370052598409968e+00 -7.9370052598409968e+00 0 0 0
2 1 -3.2541721565348084e+01 -7.1433047338568976e+00 -7.9370052598409968e+00 0 0 0
3 1 -3.2541721565348084e+01 -7.9370052598409968e+00 -7.1433047338568976e+00 0 0 0
4 1 -3.3313767079409530e+01 -7.1433047338568976e+00 -7.1433047338568976e+00 0 0 0
5 1 -3.1769676051286648e+01 -7.9370052598409968e+00 -7.9370052598409968e+00 0 0 0
6 1 -3.1769676051286648e+01 -7.1433047338568976e+00 -7.1433047338568976e+00 0 0 0
2251 4 -2.6214041577844171e+01 -6.6096396665371708e+00 -7.5718934695407878e+00 0 0 0
2339 4 -2.1265222784649623e+01 -6.8633443254460778e+00 -7.2609689580786059e+00 0 0 0
2288 4 -1.3659725461087076e+01 -6.6662893932199232e+00 -7.4071445353855001e+00 0 0 0
601 2 0.0000000000000000e+00 -7.9370052598409968e+00 -7.9370052598409968e+00 0 0 0
602 2 0.0000000000000000e+00 -7.1433047338568976e+00 -7.1433047338568976e+00 0 0 0
2952 5 1.2033850099135991e+01 -7.0529455488799684e+00 -7.0394124581467414e+00 0 0 0
801 3 3.1769676051286648e+01 -7.9370052598409968e+00 -7.9370052598409968e+00 0 0 0
804 3 3.1769676051286648e+01 -7.1433047338568976e+00 -7.1433047338568976e+00 0 0 0
802 3 3.2541721565348084e+01 -7.1433047338568976e+00 -7.9370052598409968e+00 0 0 0
803 3 3.2541721565348084e+01 -7.9370052598409968e+00 -7.1433047338568976e+00 0 0 0
805 3 3.3313767079409530e+01 -7.9370052598409968e+00 -7.9370052598409968e+00 0 0 0
806 3 3.3313767079409530e+01 -7.1433047338568976e+00 -7.1433047338568976e+00 0 0 0
7 1 -3.3313767079409530e+01 -6.3496042078727974e+00 -7.9370052598409968e+00 0 0 0
8 1 -3.2541721565348084e+01 -5.5559036818886982e+00 -7.9370052598409968e+00 0 0 0
9 1 -3.2541721565348084e+01 -6.3496042078727974e+00 -7.1433047338568967e+00 0 0 0
10 1 -3.3313767079409530e+01 -5.5559036818886973e+00 -7.1433047338568976e+00 0 0 0
11 1 -3.1769676051286648e+01 -6.3496042078727974e+00 -7.9370052598409968e+00 0 0 0
12 1 -3.1769676051286648e+01 -5.5559036818886973e+00 -7.1433047338568976e+00 0 0 0
1553 4 -2.8033961857805579e+01 -5.9127833763468001e+00 -6.6131427409408570e+00 0 0 0
2021 4 -2.2087261189061888e+01 -6.0872473966210769e+00 -7.0891665093151373e+00 0 0 0
2282 4 -2.1080078606705673e+01 -5.7546900343288954e+00 -6.7439742685010122e+00 0 0 0
1951 4 -1.7576593759614941e+01 -5.5793870113210833e+00 -6.9091464152961386e+00 0 0 0
1852 4 -1.3932877456519314e+01 -5.7445512497363342e+00 -6.8121739070054987e+00 0 0 0
1560 4 -1.2083610093795848e+01 -5.8512607517541673e+00 -7.6427351739047937e+00 0 0 0
1770 4 -1.1586968983532604e+01 -5.3067442297963909e+00 -6.7945421121134393e+00 0 0 0
2085 4 -1.0129265570454073e+01 -5.8409902023659708e+00 -7.6007164160651834e+00 0 0 0
603 2 0.0000000000000000e+00 -6.3496042078727974e+00 -7.9370052598409968e+00 0 0 0
604 2 0.0000000000000000e+00 -5.5559036818886973e+00 -7.1433047338568976e+00 0 0 0
2553 4 3.7083305404182076e+00 -5.9206336762657790e+00 -6.6066204781718962e+00 0 0 0
2852 4 1.7849919861419860e+01 -5.8620948307461749e+00 -6.8859573172919282e+00 0 0 0
2560 4 1.9666203742038896e+01 -5.8491566753907325e+00 -7.6440856378766044e+00 0 0 0
2770 4 2.0156133718947178e+01 -5.3058615326707796e+00 -6.7924972223201117e+00 0 0 0
807 3 3.1769676051286648e+01 -6.3496042078727974e+00 -7.9370052598409968e+00 0 0 0
810 3 3.1769676051286648e+01 -5.5559036818886973e+00 -7.1433047338568976e+00 0 0 0
808 3 3.2541721565348084e+01 -5.5559036818886982e+00 -7.9370052598409968e+00 0 0 0
809 3 3.2541721565348084e+01 -6.3496042078727974e+00 -7.1433047338568967e+00 0 0 0
811 3 3.3313767079409530e+01 -6.3496042078727974e+00 -7.9370052598409968e+00 0 0 0
812 3 3.3313767079409530e+01 -5.5559036818886973e+00 -7.1433047338568976e+00 0 0 0
13 1 -3.3313767079409530e+01 -4.7622031559045981e+00 -7.9370052598409968e+00 0 0 0
14 1 -3.2541721565348084e+01 -3.9685026299204984e+00 -7.9370052598409968e+00 0 0 0
15 1 -3.2541721565348084e+01 -4.7622031559045981e+00 -7.1433047338568976e+00 0 0 0
16 1 -3.3313767079409530e+01 -3.9685026299204984e+00 -7.1433047338568976e+00 0 0 0
17 1 -3.1769676051286648e+01 -4.7622031559045981e+00 -7.9370052598409968e+00 0 0 0
18 1 -3.1769676051286648e+01 -3.9685026299204984e+00 -7.1433047338568976e+00 0 0 0
2096 4 -2.7660145365379304e+01 -3.6932891862783097e+00 -7.5825583421851297e+00 0 0 0
1572 4 -2.6631631501925614e+01 -4.1117216195869180e+00 -7.9098114071811612e+00 0 0 0
1870 4 -2.6091821648696108e+01 -3.5281546209248749e+00 -7.1467917648717085e+00 0 0 0
2231 4 -2.7443135732695389e+01 -4.8137343573091655e+00 -7.6173443829683398e+00 0 0 0
1494 4 -2.5587263269232604e+01 -4.5447935619763751e+00 -7.1603977052256482e+00 0 0 0
1958 4 -2.3819458614140625e+01 -4.9968582923862943e+00 -7.1982840633299290e+00 0 0 0
1657 4 -2.2481650394128632e+01 -4.5657180968325646e+00 -7.5146149743291373e+00 0 0 0
2095 4 -2.1415156196716104e+01 -4.7282095499899057e+00 -7.1538940297937943e+00 0 0 0
1816 4 -1.5782007118391718e+01 -4.8602035277837157e+00 -7.9368203740878611e+00 0 0 0
605 2 0.0000000000000000e+00 -4.7622031559045981e+00 -7.9370052598409968e+00 0 0 0
606 2 0.0000000000000000e+00 -3.9685026299204984e+00 -7.1433047338568976e+00 0 0 0
2494 4 6.1649201942634830e+00 -4.5334118272651409e+00 -7.1442536958563165e+00 0 0 0
2572 4 4.9959316660123569e+00 -4.1643233670084996e+00 7.8983363395833095e+00 0 0 -1
2870 4 5.6214168455714599e+00 -3.5437591466927572e+00 -7.3011420912004832e+00 0 0 0
2657 4 9.5997445830713239e+00 -4.5825445080947134e+00 -7.4218659963748328e+00 0 0 0
2816 4 1.5965730416520692e+01 -4.8569182725571904e+00 -7.9284484887613669e+00 0 0 0
813 3 3.1769676051286648e+01 -4.7622031559045981e+00 -7.9370052598409968e+00 0 0 0
816 3 3.1769676051286648e+01 -3.9685026299204984e+00 -7.1433047338568976e+00 0 0 0
814 3 3.2541721565348084e+01 -3.9685026299204984e+00 -7.9370052598409968e+00 0 0 0
815 3 3.2541721565348084e+01 -4.7622031559045981e+00 -7.1433047338568976e+00 0 0 0
817 3 3.3313767079409530e+01 -4.7622031559045981e+00 -7.9370052598409968e+00 0 0 0
818 3 3.3313767079409530e+01 -3.9685026299204984e+00 -7.1433047338568976e+00 0 0 0
19 1 -3.3313767079409530e+01 -3.1748021039363987e+00 -7.9370052598409968e+00 0 0 0
20 1 -3.2541721565348084e+01 -2.3811015779522990e+00 -7.9370052598409968e+00 0 0 0
21 1 -3.2541721565348084e+01 -3.1748021039363987e+00 -7.1433047338568976e+00 0 0 0
22 1 -3.3313767079409530e+01 -2.3811015779522990e+00 -7.1433047338568976e+00 0 0 0
23 1 -3.1769676051286648e+01 -3.1748021039363987e+00 -7.9370052598409968e+00 0 0 0
24 1 -3.1769676051286648e+01 -2.3811015779522990e+00 -7.1433047338568976e+00 0 0 0
1653 4 -2.6827721059524858e+01 -2.6945316134356627e+00 -7.1031339740358463e+00 0 0 0
1649 4 -2.2922830298476370e+01 -3.0503179883769418e+00 -7.6850566327133505e+00 0 0 0
2194 4 -2.3448074316620918e+01 -2.1111290305200501e+00 -7.3457525236344203e+00 0 0 0
2142 4 -1.7875637724950263e+01 -2.9997887422474157e+00 -7.7491069238814365e+00 0 0 0
2002 4 -1.6315132082395991e+01 -3.0517593425761582e+00 -7.8554630474079534e+00 0 0 0
2006 4 -1.6266223568932212e+01 -3.2783797372164964e+00 -6.7168058819724861e+00 0 0 0
2358 4 -1.0666667755163292e+01 -2.5285259723035858e+00 -7.1918516265125563e+00 0 0 0
2074 4 -9.1715584466231874e+00 -2.7989818023971078e+00 -6.4777972479650314e+00 0 0 0
1415 4 -5.7010090420556425e+00 -2.9601018402522259e+00 -6.3770427797680771e+00 0 0 0
1900 4 -3.6280085963539430e+00 -2.9805423510581832e+00 -6.8400292275321233e+00 0 0 0
1929 4 -4.6544284091906407e+00 -2.1701600204724634e+00 -7.3837587931568871e+00 0 0 0
2205 4 -5.1970321607868302e+00 -3.1289467804566020e+00 -7.7640892330353797e+00 0 0 0
2286 4 -4.6884779936178633e+00 -3.1988308975615727e+00 -6.7732807395113674e+00 0 0 0
607 2 0.0000000000000000e+00 -3.1748021039363987e+00 -7.9370052598409968e+00 0 0 0
608 2 0.0000000000000000e+00 -2.3811015779522990e+00 -7.1433047338568976e+00 0 0 0
2653 4 4.9459525700703955e+00 -2.6689963917029482e+00 -7.0484011201526071e+00 0 0 0
2649 4 8.7273002910602351e+00 -2.8607961160826005e+00 -7.6087296817625871e+00 0 0 0
2415 4 2.6446896639231248e+01 -3.0798355863608009e+00 -6.4115750808950249e+00 0 0 0
2929 4 2.6750876511630242e+01 -2.9410665820241282e+00 -7.4614857172757985e+00 0 0 0
2900 4 2.7678736018288905e+01 -3.0374469475683177e+00 -6.8064814559110687e+00 0 0 0
819 3 3.1769676051286648e+01 -3.1748021039363987e+00 -7.9370052598409968e+00 0 0 0
822 3 3.1769676051286648e+01 -2.3811015779522990e+00 -7.1433047338568976e+00 0 0 0
820 3 3.2541721565348084e+01 -2.3811015779522990e+00 -7.9370052598409968e+00 0 0 0
821 3 3.2541721565348084e+01 -3.1748021039363987e+00 -7.1433047338568976e+00 0 0 0
823 3 3.3313767079409530e+01 -3.1748021039363987e+00 -7.9370052598409968e+00 0 0 0
824 3 3.3313767079409530e+01 -2.3811015779522990e+00 -7.1433047338568976e+00 0 0 0
25 1 -3.3313767079409530e+01 -1.5874010519681994e+00 -7.9370052598409968e+00 0 0 0
26 1 -3.2541721565348084e+01 -7.9370052598409968e-01 -7.9370052598409968e+00 0 0 0
27 1 -3.2541721565348084e+01 -1.5874010519681994e+00 -7.1433047338568976e+00 0 0 0
28 1 -3.3313767079409530e+01 -7.9370052598409968e-01 -7.1433047338568976e+00 0 0 0
29 1 -3.1769676051286648e+01 -1.5874010519681994e+00 -7.9370052598409968e+00 0 0 0
30 1 -3.1769676051286648e+01 -7.9370052598409968e-01 -7.1433047338568976e+00 0 0 0
2046 4 -2.1925080752704417e+01 -1.9801919815472044e+00 -7.0907852582703228e+00 0 0 0
2318 4 -2.0558888121762383e+01 -1.6832446560340832e+00 -7.5255723731575586e+00 0 0 0
1991 4 -1.5209389133234167e+01 -1.3192332268697258e+00 -7.0536284965797194e+00 0 0 0
1848 4 -9.1065869539894511e+00 -8.1057664743884494e-01 -6.7036737450845134e+00 0 0 0
1896 4 -8.6468888239067070e+00 -1.8170511203653159e+00 -6.5527841396089839e+00 0 0 0
2324 4 -5.8770769383616823e+00 -1.5615829318079142e+00 -6.8393192810924370e+00 0 0 0
2112 4 -3.5385770456319667e+00 -1.0949500490377293e+00 -7.6369448201514532e+00 0 0 0
609 2 0.0000000000000000e+00 -1.5874010519681994e+00 -7.9370052598409968e+00 0 0 0
610 2 0.0000000000000000e+00 -7.9370052598409968e-01 -7.1433047338568976e+00 0 0 0
2848 4 2.2673235628997467e+01 -8.9113776996237892e-01 -6.7044478970030994e+00 0 0 0
2896 4 2.2915347763438444e+01 -1.9922004475767032e+00 -6.5822624328780632e+00 0 0 0
2962 5 2.7670426014355520e+01 -1.4112685391027351e+00 7.8151046180382346e+00 0 0 -1
825 3 3.1769676051286648e+01 -1.5874010519681994e+00 -7.9370052598409968e+00 0 0 0
828 3 3.1769676051286648e+01 -7.9370052598409968e-01 -7.1433047338568976e+00 0 0 0
826 3 3.2541721565348084e+01 -7.9370052598409968e-01 -7.9370052598409968e+00 0 0 0
827 3 3.2541721565348084e+01 -1.5874010519681994e+00 -7.1433047338568976e+00 0 0 0
829 3 3.3313767079409530e+01 -1.5874010519681994e+00 -7.9370052598409968e+00 0 0 0
830 3 3.3313767079409530e+01 -7.9370052598409968e-01 -7.1433047338568976e+00 0 0 0
31 1 -3.3313767079409530e+01 2.0070784565712057e-18 -7.9370052598409968e+00 0 0 0
33 1 -3.2541721565348084e+01 7.6306070691929293e-19 -7.1433047338568976e+00 0 0 0
35 1 -3.1769676051286648e+01 -1.5252202863971800e-18 -7.9370052598409968e+00 0 0 0
2201 4 -2.8031785834475130e+01 -2.5385674470153530e-01 -7.7326435849422106e+00 0 0 0
1638 4 -2.7165320898572165e+01 -3.7425514549559741e-01 -7.0029294555387489e+00 0 0 0
2137 4 -2.5058258287164737e+01 -1.3334922938370264e-01 -6.6141872869972937e+00 0 0 0
1914 4 -2.3760725071074923e+01 5.4732317507038342e-01 -6.5198357235878683e+00 0 0 0
2165 4 -1.7489978552549296e+01 -6.1539607331404525e-02 -7.5886628082158074e+00 0 0 0
2316 4 -1.6038681880627877e+01 6.4459625206814641e-01 -7.6212636698878828e+00 0 0 0
1921 4 -1.2342680796660462e+01 4.4365512947858321e-01 -7.1012006814420054e+00 0 0 0
2018 4 -1.2246590681042807e+01 -6.3472935474697223e-01 -7.4264295303482397e+00 0 0 0
2091 4 -9.7466708311392800e+00 5.5349480365140404e-02 -6.8366969990243280e+00 0 0 0
1658 4 -8.0956618731873142e+00 8.7100750311581515e-02 -6.8220671472896379e+00 0 0 0
2262 4 -8.0866226477824235e+00 -5.2222445613931223e-01 -7.7437308348022826e+00 0 0 0
1660 4 -5.8629196384983997e+00 5.4941871633172767e-01 -7.2183372053573311e+00 0 0 0
2377 4 -6.3051050608568575e+00 -5.3149491129233939e-01 -6.6207533631579283e+00 0 0 0
1439 4 -4.6512955512178182e+00 5.2744037426840551e-01 -7.6217941754670937e+00 0 0 0
1452 4 -4.7615080336320581e+00 -3.3412786728440536e-01 -6.9354039415823499e+00 0 0 0
1877 4 -3.7214673169861370e+00 2.7408950704041500e-02 -7.2051636357573399e+00 0 0 0
611 2 0.0000000000000000e+00 0.0000000000000000e+00 -7.9370052598409968e+00 0 0 0
2638 4 4.6002789615149338e+00 -3.8897709979158573e-01 -6.9621861552548419e+00 0 0 0
2914 4 7.9856966922537165e+00 5.6954008937440281e-01 -6.5109453892200300e+00 0 0 0
2921 4 1.9441472285759758e+01 3.6302795140174521e-01 -7.1274497060103013e+00 0 0 0
2658 4 2.3639908022371259e+01 5.1283081303101767e-02 -6.8582100658083656e+00 0 0 0
2660 4 2.5912556882983310e+01 5.7583457328514476e-01 -7.2265111590215962e+00 0 0 0
2439 4 2.7090661124586848e+01 4.9704729117231955e-01 -7.6503912420931917e+00 0 0 0
2452 4 2.6935117272699152e+01 -1.5204573184007752e-01 -6.7788635805855533e+00 0 0 0
2877 4 2.8042813259695663e+01 1.8433900822627733e-01 -7.1233493304926014e+00 0 0 0
831 3 3.1769676051286648e+01 1.2038779310305913e-18 -7.9370052598409968e+00 0 0 0
833 3 3.2541721565348084e+01 5.0998048570942982e-19 -7.1433047338568976e+00 0 0 0
835 3 3.3313767079409530e+01 1.4550623119740226e-18 -7.9370052598409968e+00 0 0 0
32 1 -3.2541721565348084e+01 7.9370052598409968e-01 -7.9370052598409968e+00 0 0 0
34 1 -3.3313767079409530e+01 7.9370052598409968e-01 -7.1433047338568976e+00 0 0 0
37 1 -3.3313767079409530e+01 1.5874010519681994e+00 -7.9370052598409968e+00 0 0 0
39 1 -3.2541721565348084e+01 1.5874010519681994e+00 -7.1433047338568976e+00 0 0 0
36 1 -3.1769676051286648e+01 7.9370052598409968e-01 -7.1433047338568976e+00 0 0 0
41 1 -3.1769676051286648e+01 1.5874010519681994e+00 -7.9370052598409968e+00 0 0 0
2152 4 -2.8550468552735950e+01 1.7955490833357060e+00 -7.7078935138415092e+00 0 0 0
1612 4 -2.6911458940625710e+01 1.9325954138053592e+00 -7.0001143287640328e+00 0 0 0
1942 4 -2.5684219309700556e+01 8.1408953515207583e-01 -7.3687736483908894e+00 0 0 0
1961 4 -2.5669038443229081e+01 1.8570018876087002e+00 -7.8116871635665976e+00 0 0 0
2323 4 -2.2789106685403400e+01 1.1526214210848305e+00 -6.6070324545841324e+00 0 0 0
2212 4 -2.1832385648665689e+01 1.6274459207691336e+00 -7.3242178762051884e+00 0 0 0
1981 4 -1.3540663074428769e+01 7.7245834404736347e-01 -6.9431292610898847e+00 0 0 0
1999 4 -1.4553631399117444e+01 1.8026456456832651e+00 -7.6258743255496162e+00 0 0 0
1829 4 -7.4846448381762647e+00 1.2097972486172903e+00 -7.1672447695626254e+00 0 0 0
2119 4 -6.6784438277814910e+00 1.6942778313631284e+00 -6.5285504311997222e+00 0 0 0
2197 4 -3.9706112844789971e+00 1.1717409895783126e+00 -6.6118678286587578e+00 0 0 0
612 2 0.0000000000000000e+00 7.9370052598409968e-01 -7.1433047338568976e+00 0 0 0
613 2 0.0000000000000000e+00 1.5874010519681994e+00 -7.9370052598409968e+00 0 0 0
2612 4 4.8447655646894168e+00 1.9336676855289663e+00 -7.0273340411292722e+00 0 0 0
2942 4 6.0533277850964131e+00 8.8073129614485235e-01 -7.4049435843516900e+00 0 0 0
2967 5 1.5323783743669374e+01 1.6961643254564396e+00 -7.5936641788186643e+00 0 0 0
2829 4 2.4404091603331462e+01 1.3625379759127445e+00 -6.8895026938222825e+00 0 0 0
834 3 3.1769676051286648e+01 7.9370052598409968e-01 -7.1433047338568976e+00 0 0 0
837 3 3.1769676051286648e+01 1.5874010519681994e+00 -7.9370052598409968e+00 0 0 0
832 3 3.2541721565348084e+01 7.9370052598409968e-01 -7.9370052598409968e+00 0 0 0
836 3 3.3313767079409530e+01 7.9370052598409968e-01 -7.1433047338568976e+00 0 0 0
839 3 3.2541721565348084e+01 1.5874010519681994e+00 -7.1433047338568976e+00 0 0 0
841 3 3.3313767079409530e+01 1.5874010519681994e+00 -7.9370052598409968e+00 0 0 0
38 1 -3.2541721565348084e+01 2.3811015779522990e+00 -7.9370052598409968e+00 0 0 0
40 1 -3.3313767079409530e+01 2.3811015779522990e+00 -7.1433047338568976e+00 0 0 0
43 1 -3.3313767079409530e+01 3.1748021039363987e+00 -7.9370052598409968e+00 0 0 0
45 1 -3.2541721565348084e+01 3.1748021039363987e+00 -7.1433047338568976e+00 0 0 0
42 1 -3.1769676051286648e+01 2.3811015779522990e+00 -7.1433047338568976e+00 0 0 0
47 1 -3.1769676051286648e+01 3.1748021039363987e+00 -7.9370052598409968e+00 0 0 0
2280 4 -2.6938459725509897e+01 3.6103482609547246e+00 -6.5068536908830374e+00 0 0 0
1967 4 -2.3533072333066798e+01 2.3194751643720561e+00 7.7671535685558730e+00 0 0 -1
2300 4 -2.2692668421225193e+01 2.3772545739269457e+00 -7.3257102033439470e+00 0 0 0
1903 4 -1.8180496945364059e+01 3.0755868083584308e+00 -6.7594928442754263e+00 0 0 0
1654 4 -1.7294490673337403e+01 2.4315647747183249e+00 -6.6467063179569488e+00 0 0 0
1429 4 -1.3051243334230801e+01 3.1723654697734736e+00 -6.6657787640199153e+00 0 0 0
1968 4 -1.2108668682773034e+01 2.5966862604875276e+00 -6.5179694348367923e+00 0 0 0
1417 4 -9.5151307973921337e+00 2.1544377138996547e+00 -7.5921849176823155e+00 0 0 0
1532 4 -1.0058920380159989e+01 3.1040082966525193e+00 -7.9273102692258712e+00 0 0 0
2026 4 -7.9909549558795945e+00 3.4710136298166385e+00 -6.7219821576383536e+00 0 0 0
2329 4 -6.6183834434920437e+00 2.7877106810684116e+00 -7.0595032117252989e+00 0 0 0
614 2 0.0000000000000000e+00 2.3811015779522990e+00 -7.1433047338568976e+00 0 0 0
615 2 0.0000000000000000e+00 3.1748021039363987e+00 -7.9370052598409968e+00 0 0 0
2654 4 1.4253522082339611e+01 2.6484146273534619e+00 -6.3319602225547547e+00 0 0 0
2903 4 1.3339294948166996e+01 3.1342495559902672e+00 -6.7145480017029548e+00 0 0 0
2429 4 1.8691357631483388e+01 3.1728469821614653e+00 -6.6615093318245728e+00 0 0 0
2417 4 2.2237315383083065e+01 2.1465705490820786e+00 -7.6015989294374933e+00 0 0 0
2532 4 2.1694487308026318e+01 3.0893140131745915e+00 -7.9179447946601806e+00 0 0 0
840 3 3.1769676051286648e+01 2.3811015779522990e+00 -7.1433047338568976e+00 0 0 0
843 3 3.1769676051286648e+01 3.1748021039363987e+00 -7.9370052598409968e+00 0 0 0
838 3 3.2541721565348084e+01 2.3811015779522990e+00 -7.9370052598409968e+00 0 0 0
842 3 3.3313767079409530e+01 2.3811015779522990e+00 -7.1433047338568976e+00 0 0 0
845 3 3.2541721565348084e+01 3.1748021039363987e+00 -7.1433047338568976e+00 0 0 0
847 3 3.3313767079409530e+01 3.1748021039363987e+00 -7.9370052598409968e+00 0 0 0
44 1 -3.2541721565348084e+01 3.9685026299204984e+00 -7.9370052598409968e+00 0 0 0
46 1 -3.3313767079409530e+01 3.9685026299204984e+00 -7.1433047338568976e+00 0 0 0
49 1 -3.3313767079409530e+01 4.7622031559045981e+00 -7.9370052598409968e+00 0 0 0
51 1 -3.2541721565348084e+01 4.7622031559045981e+00 -7.1433047338568976e+00 0 0 0
48 1 -3.1769676051286648e+01 3.9685026299204984e+00 -7.1433047338568976e+00 0 0 0
53 1 -3.1769676051286648e+01 4.7622031559045981e+00 -7.9370052598409968e+00 0 0 0
1839 4 -2.5829562385170480e+01 4.1615530254737569e+00 -7.4522726533233232e+00 0 0 0
1541 4 -2.3208904458215674e+01 4.6235704190038769e+00 -7.7550898923300684e+00 0 0 0
2075 4 -1.6185459532500857e+01 4.6227935661516355e+00 -7.3929328135278443e+00 0 0 0
1773 4 -1.3264944297816863e+01 4.2715508954002503e+00 -6.7062898327405014e+00 0 0 0
1468 4 -1.1154878618083677e+01 4.4701436104660797e+00 -6.7512140239678420e+00 0 0 0
2278 4 -8.6460812726764331e+00 4.5864901900693642e+00 -7.5176232538330883e+00 0 0 0
616 2 0.0000000000000000e+00 3.9685026299204984e+00 -7.1433047338568976e+00 0 0 0
617 2 0.0000000000000000e+00 4.7622031559045981e+00 -7.9370052598409968e+00 0 0 0
2839 4 5.9206862273063363e+00 4.1661509858051620e+00 -7.4636222509090295e+00 0 0 0
2541 4 8.5746009849678551e+00 4.6065734040977144e+00 -7.7436710563551463e+00 0 0 0
2977 5 1.4482549286252619e+01 4.8730281784952059e+00 -7.5476178730353194e+00 0 0 0
2773 4 1.8478778069857484e+01 4.2747237219765628e+00 -6.7036776799180311e+00 0 0 0
2468 4 2.0597983013517403e+01 4.4769823362516314e+00 -6.7424985760168452e+00 0 0 0
846 3 3.1769676051286648e+01 3.9685026299204984e+00 -7.1433047338568976e+00 0 0 0
849 3 3.1769676051286648e+01 4.7622031559045981e+00 -7.9370052598409968e+00 0 0 0
844 3 3.2541721565348084e+01 3.9685026299204984e+00 -7.9370052598409968e+00 0 0 0
848 3 3.3313767079409530e+01 3.9685026299204984e+00 -7.1433047338568976e+00 0 0 0
851 3 3.2541721565348084e+01 4.7622031559045981e+00 -7.1433047338568976e+00 0 0 0
853 3 3.3313767079409530e+01 4.7622031559045981e+00 -7.9370052598409968e+00 0 0 0
50 1 -3.2541721565348084e+01 5.5559036818886982e+00 -7.9370052598409968e+00 0 0 0
52 1 -3.3313767079409530e+01 5.5559036818886973e+00 -7.1433047338568976e+00 0 0 0
55 1 -3.3313767079409530e+01 6.3496042078727974e+00 -7.9370052598409968e+00 0 0 0
57 1 -3.2541721565348084e+01 6.3496042078727974e+00 -7.1433047338568967e+00 0 0 0
54 1 -3.1769676051286648e+01 5.5559036818886973e+00 -7.1433047338568976e+00 0 0 0
59 1 -3.1769676051286648e+01 6.3496042078727974e+00 -7.9370052598409968e+00 0 0 0
1678 4 -2.6002780910676439e+01 5.9339298050181535e+00 -6.4986445648393127e+00 0 0 0
2128 4 -2.3853272890793068e+01 5.1668684727658967e+00 -6.9444771374442276e+00 0 0 0
1932 4 -2.2200732310572430e+01 5.1992248167258968e+00 -6.6058104756297436e+00 0 0 0
2009 4 -1.2160711838157827e+01 6.2597191766999734e+00 -7.6594817542738909e+00 0 0 0
1581 4 -3.3189460718761015e+00 6.2307519111133081e+00 -6.7104728982276445e+00 0 0 0
618 2 0.0000000000000000e+00 5.5559036818886973e+00 -7.1433047338568976e+00 0 0 0
619 2 0.0000000000000000e+00 6.3496042078727974e+00 -7.9370052598409968e+00 0 0 0
2678 4 5.7389551801482099e+00 5.9356158348346737e+00 -6.4982772259749151e+00 0 0 0
2932 4 9.5568888547310138e+00 5.1990740870077738e+00 -6.6051554494672819e+00 0 0 0
2581 4 2.8552609080081570e+01 5.9172862784664968e+00 -6.5443724768105209e+00 0 0 0
852 3 3.1769676051286648e+01 5.5559036818886973e+00 -7.1433047338568976e+00 0 0 0
855 3 3.1769676051286648e+01 6.3496042078727974e+00 -7.9370052598409968e+00 0 0 0
850 3 3.2541721565348084e+01 5.5559036818886982e+00 -7.9370052598409968e+00 0 0 0
854 3 3.3313767079409530e+01 5.5559036818886973e+00 -7.1433047338568976e+00 0 0 0
857 3 3.2541721565348084e+01 6.3496042078727974e+00 -7.1433047338568967e+00 0 0 0
859 3 3.3313767079409530e+01 6.3496042078727974e+00 -7.9370052598409968e+00 0 0 0
56 1 -3.2541721565348084e+01 7.1433047338568976e+00 -7.9370052598409968e+00 0 0 0
58 1 -3.3313767079409530e+01 7.1433047338568976e+00 -7.1433047338568976e+00 0 0 0
60 1 -3.1769676051286648e+01 7.1433047338568976e+00 -7.1433047338568976e+00 0 0 0
1527 4 -2.5214763851805770e+01 6.7208733781875178e+00 -6.6430196551279526e+00 0 0 0
1647 4 -2.1717148832002575e+01 7.4875965373666897e+00 -7.5138913380535035e+00 0 0 0
1405 4 -1.9759173099883558e+01 6.9705366022036985e+00 -7.5722699785983583e+00 0 0 0
2177 4 -1.9071245076625420e+01 7.4153977115256726e+00 -6.7784191204870048e+00 0 0 0
1574 4 -1.6651477769792091e+01 7.8518537525245504e+00 -6.7599426073090951e+00 0 0 0
620 2 0.0000000000000000e+00 7.1433047338568976e+00 -7.1433047338568976e+00 0 0 0
2527 4 6.5120462586641619e+00 6.7324214844588868e+00 -6.6513416558312555e+00 0 0 0
2647 4 1.0035656544617128e+01 7.4806703241855859e+00 -7.5143406323355197e+00 0 0 0
2405 4 1.2041614197009668e+01 6.9902914319942617e+00 -7.5369188547299473e+00 0 0 0
2574 4 1.5101936872286531e+01 7.8510713089370423e+00 -6.7658296834338794e+00 0 0 0
2972 5 2.5251438814106447e+01 7.4561332577018149e+00 -7.5578842770750088e+00 0 0 0
2984 5 2.7967812037713571e+01 7.6090386376201797e+00 -7.2370977221048989e+00 0 0 0
858 3 3.1769676051286648e+01 7.1433047338568976e+00 -7.1433047338568976e+00 0 0 0
856 3 3.2541721565348084e+01 7.1433047338568976e+00 -7.9370052598409968e+00 0 0 0
860 3 3.3313767079409530e+01 7.1433047338568976e+00 -7.1433047338568976e+00 0 0 0
61 1 -3.3313767079409530e+01 -7.9370052598409968e+00 -6.3496042078727974e+00 0 0 0
62 1 -3.2541721565348084e+01 -7.1433047338568967e+00 -6.3496042078727974e+00 0 0 0
63 1 -3.2541721565348084e+01 -7.9370052598409968e+00 -5.5559036818886982e+00 0 0 0
64 1 -3.3313767079409530e+01 -7.1433047338568976e+00 -5.5559036818886973e+00 0 0 0
65 1 -3.1769676051286648e+01 -7.9370052598409968e+00 -6.3496042078727974e+00 0 0 0
66 1 -3.1769676051286648e+01 -7.1433047338568976e+00 -5.5559036818886973e+00 0 0 0
1526 4 -2.7919939538125703e+01 -7.5385815246343588e+00 -6.3905059915247548e+00 0 0 0
1802 4 -2.6660336113274390e+01 -6.9500628042234593e+00 -5.6171250373113040e+00 0 0 0
1930 4 -2.6012574469444459e+01 -6.7166296270238179e+00 -6.4926211105456799e+00 0 0 0
2344 4 -1.7723838404712993e+01 -7.8337311843742405e+00 -5.4600537081280551e+00 0 0 0
2257 4 -1.4027705489448971e+01 -7.7690503302282732e+00 -5.7475025623529588e+00 0 0 0
1472 4 -1.1716380430724993e+01 -6.9419809023398207e+00 -6.0353453324491051e+00 0 0 0
621 2 0.0000000000000000e+00 -7.9370052598409968e+00 -6.3496042078727974e+00 0 0 0
622 2 0.0000000000000000e+00 -7.1433047338568976e+00 -5.5559036818886973e+00 0 0 0
2526 4 3.8383976722105531e+00 -7.5409069131489552e+00 -6.4141032454529547e+00 0 0 0
2802 4 5.1018256389873677e+00 -6.9463032134527278e+00 -5.6337192982644693e+00 0 0 0
2930 4 5.7012819508104240e+00 -6.7230352483506799e+00 -6.5592014552080613e+00 0 0 0
2472 4 2.0038704926102469e+01 -6.9360509851970127e+00 -6.0516917325466899e+00 0 0 0
2961 5 2.6119522990361617e+01 -7.2435105670982152e+00 -5.3764609499246392e+00 0 0 0
861 3 3.1769676051286648e+01 -7.9370052598409968e+00 -6.3496042078727974e+00 0 0 0
864 3 3.1769676051286648e+01 -7.1433047338568976e+00 -5.5559036818886973e+00 0 0 0
862 3 3.2541721565348084e+01 -7.1433047338568967e+00 -6.3496042078727974e+00 0 0 0
863 3 3.2541721565348084e+01 -7.9370052598409968e+00 -5.5559036818886982e+00 0 0 0
865 3 3.3313767079409530e+01 -7.9370052598409968e+00 -6.3496042078727974e+00 0 0 0
866 3 3.3313767079409530e+01 -7.1433047338568976e+00 -5.5559036818886973e+00 0 0 0
67 1 -3.3313767079409530e+01 -6.3496042078727974e+00 -6.3496042078727974e+00 0 0 0
68 1 -3.2541721565348084e+01 -5.5559036818886982e+00 -6.3496042078727974e+00 0 0 0
69 1 -3.2541721565348084e+01 -6.3496042078727974e+00 -5.5559036818886982e+00 0 0 0
70 1 -3.3313767079409530e+01 -5.5559036818886973e+00 -5.5559036818886973e+00 0 0 0
71 1 -3.1769676051286648e+01 -6.3496042078727974e+00 -6.3496042078727974e+00 0 0 0
72 1 -3.1769676051286648e+01 -5.5559036818886973e+00 -5.5559036818886973e+00 0 0 0
1707 4 -2.4112135558941116e+01 -5.7165786050467453e+00 -5.5663892908781323e+00 0 0 0
1620 4 -2.1961119041424649e+01 -6.5882117480861888e+00 -6.0903010788936642e+00 0 0 0
1821 4 -2.1246162849907510e+01 -5.4221109735321882e+00 -5.3582997066740043e+00 0 0 0
2088 4 -2.1985820266331331e+01 -5.4206342170728528e+00 -6.1901162252350321e+00 0 0 0
1732 4 -1.7404097324521182e+01 -5.3694181772084217e+00 -5.1611511483985355e+00 0 0 0
1762 4 -7.5463990757834836e+00 -6.1667989186539929e+00 -5.5067208940543200e+00 0 0 0
623 2 0.0000000000000000e+00 -6.3496042078727974e+00 -6.3496042078727974e+00 0 0 0
624 2 0.0000000000000000e+00 -5.5559036818886973e+00 -5.5559036818886973e+00 0 0 0
2707 4 7.6371839728956390e+00 -5.7223015155285264e+00 -5.5651236358503260e+00 0 0 0
2620 4 9.7798813430415876e+00 -6.4218967761869914e+00 -6.3767925464811475e+00 0 0 0
2821 4 1.0402685889370426e+01 -5.4171659109882162e+00 -5.4483976412174790e+00 0 0 0
2732 4 1.4328787609957832e+01 -5.3633680081346276e+00 -5.1915743980976181e+00 0 0 0
2762 4 2.4224507937290088e+01 -6.1825079581733933e+00 -5.5049553265519595e+00 0 0 0
867 3 3.1769676051286648e+01 -6.3496042078727974e+00 -6.3496042078727974e+00 0 0 0
870 3 3.1769676051286648e+01 -5.5559036818886973e+00 -5.5559036818886973e+00 0 0 0
868 3 3.2541721565348084e+01 -5.5559036818886982e+00 -6.3496042078727974e+00 0 0 0
869 3 3.2541721565348084e+01 -6.3496042078727974e+00 -5.5559036818886982e+00 0 0 0
871 3 3.3313767079409530e+01 -6.3496042078727974e+00 -6.3496042078727974e+00 0 0 0
872 3 3.3313767079409530e+01 -5.5559036818886973e+00 -5.5559036818886973e+00 0 0 0
73 1 -3.3313767079409530e+01 -4.7622031559045981e+00 -6.3496042078727974e+00 0 0 0
74 1 -3.2541721565348084e+01 -3.9685026299204984e+00 -6.3496042078727974e+00 0 0 0
75 1 -3.2541721565348084e+01 -4.7622031559045981e+00 -5.5559036818886982e+00 0 0 0
76 1 -3.3313767079409530e+01 -3.9685026299204984e+00 -5.5559036818886973e+00 0 0 0
77 1 -3.1769676051286648e+01 -4.7622031559045981e+00 -6.3496042078727974e+00 0 0 0
78 1 -3.1769676051286648e+01 -3.9685026299204984e+00 -5.5559036818886973e+00 0 0 0
1582 4 -2.7835120159306676e+01 -3.9403936984164121e+00 -5.2354723451538980e+00 0 0 0
2296 4 -2.6864390449215236e+01 -4.4974700198163502e+00 -5.3180233673629269e+00 0 0 0
1931 4 -2.1350818104589621e+01 -4.2430399029109571e+00 -5.3548930065436426e+00 0 0 0
1911 4 -1.3535487445211148e+01 -4.5183489075889822e+00 -5.8025719676508407e+00 0 0 0
2158 4 -1.4461663523321267e+01 -3.9691267271396042e+00 -6.0283534135560002e+00 0 0 0
1492 4 -9.7406833615384478e+00 -4.6605568115746641e+00 -5.3315342858288197e+00 0 0 0
2227 4 -7.4732994103714896e+00 -4.1688777061214184e+00 -5.3310931980492633e+00 0 0 0
1557 4 -5.2830136857779202e+00 -5.0215762624538423e+00 -5.4363698254504911e+00 0 0 0
1682 4 -4.0359677077330147e+00 -4.1255578613419699e+00 -6.4631194347523664e+00 0 0 0
625 2 0.0000000000000000e+00 -4.7622031559045981e+00 -6.3496042078727974e+00 0 0 0
626 2 0.0000000000000000e+00 -3.9685026299204984e+00 -5.5559036818886973e+00 0 0 0
2582 4 3.8898945156837583e+00 -4.1099642864223371e+00 -5.2891188846017458e+00 0 0 0
2931 4 1.0399240341939221e+01 -4.2306951682214757e+00 -5.3524151340664883e+00 0 0 0
2911 4 1.8126813763282900e+01 -4.4713768943914847e+00 -5.7424864017017514e+00 0 0 0