LAMMPS data file via write_data, version 22 Dec 2022, timestep = 2000

576 atoms
2 atom types

-3.5654778903390305 24.151055601936292 xlo xhi
2.3141414483444924 18.271436263248198 ylo yhi
1.4193121110840448 19.16626560051015 zlo zhi

Masses

1 28.0855
2 15.999

Atoms # full

366 41 2 -0.9232719207351994 0.3227597891724412 4.397629037144494 5.436655876572092 -1 2 3
470 53 1 1.870610771285262 2.2787201028032325 7.946483706359821 5.790130514049803 -4 4 1
315 35 2 -0.9573615045336324 -1.1158768703897919 6.232293608923289 4.3416715013446385 9 -2 0
290 33 1 1.983246817674443 -2.6059303923981414 5.979494900408241 4.80589274191163 0 2 -1
474 53 2 -0.9061396045788639 2.0096555819642505 9.367775902774662 4.956795567952256 2 -5 -1
175 20 2 -1.009975209432024 1.001014545582401 7.030817494652847 5.688378456865981 3 -4 -4
377 42 2 -0.9515391862579373 0.12381849985472781 9.134011790923655 3.2052313938106582 -4 5 -6
75 9 1 1.885765782777144 0.4087817141763668 5.860135964163354 4.792283839351759 -2 -3 3
402 45 2 -1.028783379208771 -1.505264285319432 4.462426340190115 8.4612453816546 4 4 -3
488 55 1 2.09164690103216 -2.4346244784725046 5.557646073683092 7.869221273437068 1 1 -1
360 40 2 -0.9947330275789548 1.401882249747378 5.68564734973989 3.544488465693967 1 -2 0
220 25 2 -0.9158944594947276 1.0685084895623351 4.2097166683989045 8.46295906022013 -6 -3 4
408 46 1 1.813719942585852 2.6176714571330155 5.258221146336682 2.521714755663349 -1 2 5
46 6 1 1.909758107208416 -0.3523037877653814 3.490387134010243 8.904047392799562 0 -2 4
124 14 2 -1.001967898378242 -2.5868418216302635 5.42528541729855 6.2825678983597975 -3 -3 2
210 24 1 1.912091063746041 -2.390998973721511 8.387049383237635 8.96702046068679 1 -1 -5
38 5 1 1.967938338898267 1.7912450634177342 8.813760188757602 8.5410257554365 -2 8 -4
314 35 2 -0.9600243256026441 2.628113594726752 8.46219290081936 7.26109573351157 6 1 7
419 47 2 -0.9947200018262954 -1.92801665504386 7.04221959818266 8.184254328733616 -8 -1 -1
306 34 2 -0.9174103646524508 -2.1469603261234926 9.606207844342533 7.921881769942828 -2 0 0
401 45 2 -0.9548012335318253 1.4706049642041368 7.548089275080087 9.543745846289518 -2 -1 -6
118 14 1 1.858535301447621 0.575196018407909 9.94225760450458 4.484351287470073 4 -2 -1
201 23 1 1.800115012239096 2.7030341313332222 4.141450454385041 8.360486920535994 -2 3 2
364 41 2 -0.988375335084501 0.4481200492164108 9.399661609197643 7.906459884130413 -5 -5 -1
231 26 2 -0.9160164933147558 -0.5573716805951481 9.689303929680966 5.6096052760341415 2 1 6
60 7 2 -0.895123921678909 -0.19693751715178953 2.862289821365855 3.240332566627349 5 -1 -4
352 40 1 1.741895817296302 0.4642206408654177 2.924133909334821 4.707058956670134 -1 -9 6
168 19 2 -0.9434190944970079 2.6459804991017792 9.718950883035326 9.53484031095783 2 4 0
536 60 2 -0.920736956417694 -3.120270275944138 4.694183998486862 4.020999928192024 1 4 2
123 14 2 -0.8500396647190228 1.773955922180125 4.034138382036302 1.7653910717485486 1 -2 2
300 34 1 1.732643432154246 0.2222879018387789 3.5218036697641417 1.7977016579575735 6 -2 -6
380 43 1 1.905106348654164 -0.7781974434223269 10.103836513648986 7.170999269381343 2 -5 -1
484 54 2 -0.9181186881445051 3.1478005280728256 3.22738403780515 7.116861936879364 -4 1 6
163 19 1 1.929396397448649 5.975703459061574 10.223880411030938 4.879045497013264 1 -1 0
50 6 2 -0.9524340895794623 3.0611260361290213 6.336524892094851 1.4304216725254848 2 2 -6
373 42 2 -0.8654061839854023 6.487038573068812 4.719563800165733 2.0190892870209227 -3 3 0
501 56 2 -0.8882512067649538 8.45829216522209 8.865496519266777 7.377425677697659 -5 7 1
27 3 2 -1.01652196290398 6.477948099468891 2.453003799412841 9.540337169859228 6 11 0
420 47 2 -0.9474356100575837 7.25879748416739 8.516738473612206 9.726021428749846 -1 -4 2
40 5 2 -0.9618696452563567 3.4219226233522724 3.420404502769673 9.64793421150867 4 -1 6
381 43 1 1.821110488450908 10.024452491505912 3.936667321011665 9.526435885362542 -2 -1 -5
404 45 2 -0.9383068339968786 -3.526459489241342 7.319312605137969 4.778394797237768 6 -3 4
550 62 1 2.020676946767989 6.830228453082814 3.9726164585697257 9.61436248194696 -5 1 -9
311 35 2 -0.9663907822846536 9.036643273582735 8.162186006910344 4.85548431823579 0 -6 0
173 20 1 1.838634992938862 5.572056434374453 4.89988753152525 3.4032263095650803 5 -7 3
228 26 1 1.874563631731694 5.170151094989512 9.696208772362983 1.9897955698649383 5 -1 7
464 52 2 -0.9069409134588691 8.834818194980262 5.968952100518168 2.058930377321682 -5 2 3
553 62 2 -0.9610287282028173 5.4269373821885925 6.618596267683631 6.711809257522158 -1 5 0
289 33 1 1.949272673976226 9.614299822218088 8.699457324592672 3.483602576522128 2 -4 -1
35 4 2 -0.9940574865854055 8.566749866151136 8.832119083469854 2.2936701457933717 5 4 2
57 7 1 1.837933186631814 9.422652754756225 7.956877074845867 6.3931858319515955 3 5 -1
558 62 2 -0.9640037118345168 8.449375076817288 4.00327561980398 9.755701939418424 3 2 -4
131 15 2 -0.9362546816409807 8.487353126870609 3.857567564454812 6.227638644557942 4 4 1
498 56 1 2.032584322513954 5.14783710643381 7.2327675423120095 5.26051393399176 2 5 4
111 13 1 1.896660190375267 7.715092080191303 9.593638366613815 8.623522275769457 0 -3 5
324 36 2 -0.951618036282158 3.8759657180375298 8.698155712108294 2.08987172666549 2 -1 0
236 27 1 1.941286118138701 5.077116161880756 5.96852535809212 8.16067791683773 2 1 -1
422 47 2 -0.9607150708831407 6.1139351339967565 4.756945287433755 8.396185480148421 0 -1 -2
273 31 1 1.80256273061113 9.636223847106669 4.936410713097665 6.658814102790756 -2 -8 6
476 53 2 -0.9353096837563553 3.541152980319911 5.527404268021213 8.246995801746296 1 7 0
411 46 2 -0.9931443440833473 3.562244204567092 7.2702182200908005 5.137041066111667 6 -8 -7
180 20 2 -0.9702543937482626 5.674026364332553 8.708333000450814 5.347544983322511 7 -1 5
107 12 2 -0.8899005062569278 9.040284802039277 6.404804342575371 6.754279609853493 -1 -1 -2
278 31 2 -1.001609134439797 5.238410468729786 7.027723444194327 9.347741795190661 1 7 4
239 27 2 -0.8978360551521072 4.003638938188407 4.628621157080653 3.1371699953547494 4 5 6
227 26 1 1.891075838662656 7.6152277324683535 3.0636186426790157 5.140816259560333 1 2 0
493 55 2 -0.9090525132378062 6.424617035727428 3.9529662917988393 4.441986301704428 -4 1 1
256 29 2 -0.9620244522670138 5.650408698627752 6.400187402662434 3.9926493876832065 2 -1 -3
199 23 1 1.845342804813184 0.03105872205139182 8.65396328729209 1.6908956302308435 -2 -2 -1
432 48 2 -0.9484055783138498 -0.9435590345710065 7.3792077823377005 1.7094239096260404 -2 4 3
249 28 2 -0.9425357413467595 2.0011755901499892 2.560986489091995 4.489865745507337 2 0 -4
330 37 2 -0.8932999095895131 -3.5641061109145866 10.196358127606793 4.162207840301815 -2 2 -7
269 30 2 -1.027426256424369 -0.7576386128484436 6.995638325405596 14.74646150595833 4 7 -3
95 11 2 -0.8881265746386814 1.2916620616532546 5.756729645810241 16.13298472853858 11 4 -9
287 32 2 -1.062431100963596 -0.7622326834561215 4.465185531550942 15.297355582105721 1 2 -10
345 39 1 1.856380629128397 1.610177945716254 7.160456880110789 11.084199178464111 -2 5 -3
83 10 1 1.995065809903734 -0.34455383995030475 5.8770478006029485 15.774698052157664 -3 -2 -1
101 12 1 1.908379109844541 -1.428550819415035 7.758863980952958 11.675665861226749 5 -1 2
288 32 2 -0.9675367442774968 -1.0563850976844948 6.2505101034048725 17.19076112919047 -5 4 -4
195 22 2 -0.914418806717663 0.06040896407894358 7.075594913336506 11.592309780112231 -6 -5 -3
230 26 2 -0.9497517380368939 2.4605350605747827 5.871518704739106 11.520000805370815 0 -1 3
397 45 1 1.932928315834727 2.712971849523271 5.0520802049691165 15.605884448728572 5 -2 3
285 32 2 -0.9494712191086704 -1.5255192292962056 8.664526687290707 13.058568943032933 -2 -1 3
321 36 2 -1.066483025716614 -2.578590129256103 4.052178477806028 11.804399794421476 4 0 2
152 17 2 -0.9119733098980314 2.3980661921368096 4.878685060572515 14.034251581511436 0 -3 0
563 63 2 -0.9281072604861016 2.4301882982625305 8.401983352539414 11.737845850006323 7 1 0
569 64 1 1.962459976706119 -1.3102013939624997 8.456575605330944 14.609040190375728 9 -2 6
328 37 2 -1.014200787358626 -2.509854112094719 6.612303876750097 11.588826357942095 6 3 -6
41 5 2 -0.9529119910264382 -2.7137020102215335 8.743572529615058 15.40323252820794 0 -5 8
264 30 1 2.020427143882196 -1.4507746118995688 2.9708974834493307 11.657866933028531 -3 -6 -1
524 59 1 1.849344313274613 -1.5663632157240255 6.094200425010561 18.703368584392862 1 -10 2
281 32 1 2.035289631472217 -0.9499575202811648 3.0501015698265213 14.652442624828321 3 6 -2
369 41 2 -0.9273951697636419 -0.07828726874767655 9.288596760487145 15.167541690473177 5 -1 0
98 11 2 -0.8677202248822757 -0.7926163362249561 9.810216214459553 18.58765839925052 -10 -2 -3
409 46 2 -0.9248289420987699 3.0880123240916015 3.7104834938285327 16.372026485526067 4 5 3
322 36 2 -0.9330243837413255 -0.6585408922257789 3.0957158609387014 13.080571917994584 5 -10 4
521 58 2 -0.9413545423586386 -0.4026411459674817 3.3047089397638674 10.515509995687896 4 1 5
100 12 1 2.0538496457703 -3.3741629501745662 5.377715264032711 12.126478838970966 -2 6 -2
516 58 1 1.821956151903599 3.151799621368844 4.872643153640766 12.60421350952177 -6 0 0
151 17 2 -0.945364391294548 1.5346360371288048 8.423405048414313 18.843050105409752 1 -7 -4
406 46 1 1.837438771643995 3.2833796378764957 9.60987397545717 10.976564972669618 6 2 7
145 17 1 1.920775476183562 3.0334793913510083 7.899854339403429 18.73883190099137 -1 0 8
455 51 2 -0.9676950732910203 -2.4908637158736573 2.667412306097299 14.841752311245022 8 6 1
463 52 2 -0.834638398480548 3.0144177658011593 3.267100363715362 12.185042148201637 -1 -4 -2
88 10 2 -1.079657802156671 6.2079715599453245 4.583660205783077 10.936348783567045 3 -3 -4
187 21 2 -0.8878016567348855 -3.1977014880134362 6.2576748756980916 18.95841965365628 0 1 3
8 1 2 -0.8935976740333963 10.128366430340169 7.679236298018775 10.819065815955428 -5 -1 -4
415 47 1 2.122406945784379 5.433262507902082 10.089855075821344 14.883387048117969 -1 1 -4
529 59 2 -0.9209799729049952 6.347678524117548 8.957718220518428 18.923599087449517 0 -1 0
472 53 2 -0.9219477643647493 -3.385484817305421 2.3445489569682385 17.34342432969115 -7 3 -3
202 23 2 -0.9120230812200257 0.14710486586067706 2.4538593596777925 18.272967284355367 3 5 3
9 1 2 -0.8502950376319931 10.01325273198443 5.2291728117557845 13.972398024310884 10 -1 8
309 35 1 1.854628773620638 3.4092034062102137 2.382786191183239 10.846118150748717 -5 0 -1
254 29 1 1.8928799121787 7.896359697135827 9.314670565600718 18.681709311774654 3 -6 2
359 40 2 -0.9546270618666246 7.743739420486554 5.692678478556706 17.547239633524754 7 -9 0
399 45 1 1.794533587578217 8.394055761820036 5.355484093249476 14.43897296206596 -6 -2 3
486 54 2 -0.9427865195049182 4.839012008799779 9.099954522460823 10.882245442378927 -3 -8 -4
248 28 2 -0.9543472049660437 5.835290701967622 7.1835396048847056 16.849254575213074 -2 2 3
457 51 2 -0.9902652386216012 3.4811393800136488 8.048582589473337 17.20107661601928 2 -1 -5
139 16 2 -0.9853713689239775 4.693840424966519 5.300427384620532 12.868276941705174 0 -3 2
318 36 1 2.131284646016904 6.097539474516433 5.54321108536365 12.186231560469295 0 6 2
183 21 1 1.956943887162532 7.431748164173149 7.027498604868368 16.72343392539932 2 -4 8
243 27 2 -0.9308539251925279 8.111243343991749 8.257986692131652 17.507949608958043 -3 -7 -10
512 57 2 -0.9882569852521002 3.89145538511771 6.078885554252903 15.68648328126003 0 -2 -5
245 28 1 1.787762261028243 9.969716574736593 8.95636203722566 11.80902300056437 -10 4 3
545 61 2 -0.9279651531716193 8.652908853225757 3.5713144476052125 18.672156823946636 2 -3 2
447 50 2 -0.9544088526171292 7.297715240357629 5.316489400317481 13.163993462310554 -1 0 -2
291 33 1 1.824201365776363 4.333451221821694 2.696763678555956 16.62518685039231 0 -2 0
206 23 2 -0.8611171738502701 5.637102389302511 3.376403067533091 15.956379155084392 -4 -5 2
215 24 2 -0.963874344988642 8.185963885954635 3.9986308177637975 15.252656487294727 -3 9 5
44 5 2 -0.9917068250962494 6.873481711573184 10.291036511615559 14.31835123700307 1 3 -3
266 30 2 -0.9436430918572304 8.086509892295181 6.694695095195418 15.314496157028746 1 6 -8
30 4 1 1.667495573309658 7.126779436374871 2.8651135699410335 15.451690129170466 1 -4 3
367 41 2 -1.027210866908546 6.1238032440788785 7.000351966614186 11.652551695700401 0 -4 1
24 3 2 -0.8748278914480032 8.483760457216613 9.328585454716904 12.34281874821252 9 0 2
133 15 2 -1.040759384249167 4.862020556687817 8.612755507696246 14.97605090082697 3 0 1
388 44 1 1.984420962960268 4.468050097588977 7.503206699418258 16.081771059710157 2 6 -3
559 63 1 1.973877829174773 5.887058199237874 7.988118325298345 10.422608252287674 7 -2 1
21 3 1 1.833882320219286 7.92721457546493 4.9554466530352315 18.9572227200035 -1 0 -4
338 38 2 -0.8723150584090681 -3.5495364871236994 8.834749885553562 17.808669785262218 -1 -1 -2
121 14 2 -0.8777829351258817 6.855553991991986 2.4201122559612847 13.87862923304857 6 -2 -3
392 44 2 -0.9742452705182929 -1.6879596667229666 8.614434657511172 10.350871931299894 3 -7 1
375 42 2 -0.9014454157603872 -0.8185181850468117 4.71857523780917 19.065317806774438 3 9 2
391 44 2 -0.89485328795091 1.6757709740501117 13.332919633700946 8.418516451436405 -3 3 -7
274 31 2 -0.8585700033253266 0.1978651353235512 15.412165030527294 7.318920676646869 11 2 1
156 18 1 1.8868812074917 1.537457902365846 12.254832696182469 2.8848459289321697 1 4 -5
575 64 2 -0.995149776205159 -0.7147387225642543 14.541671056278247 4.228782857422297 4 4 -5
299 34 1 1.774115719239596 0.13431686835876544 17.122425807046948 7.084642474806512 3 -1 2
554 62 2 -0.9822877304229617 1.6931966730400019 17.324430574920907 7.320431762366879 3 -7 -2
3 1 1 1.869423909840044 -1.740578216543277 12.902975492771919 7.49792017554106 5 -7 -4
250 28 2 -0.8421375370836275 -0.9445311057116563 13.789009142737651 8.655869017960104 -3 -2 5
29 4 1 2.018520270643275 -2.201068241958553 14.106167403350895 4.700048637572886 -4 4 -2
53 6 2 -1.023016784437782 1.5268698781422279 16.05214801245966 3.8877016967835956 -1 -4 -2
307 35 1 2.078406997298512 0.4523715597320779 15.062935603595136 3.289225143560401 0 0 -2
140 16 2 -1.012346582277946 -2.109308619055486 13.818636654397956 6.252094278999633 -4 1 6
144 16 2 -0.9547746009558278 0.6319368309621156 11.446282442260802 3.9286458971103664 1 1 6
386 43 2 -0.954261838733572 -0.7462382178301619 11.691746754843852 7.209172034151624 4 -1 -4
190 22 1 1.813619653545257 0.5287057326328588 14.470118525831111 8.571314945071475 5 1 -3
350 39 2 -1.020191463978487 1.1930987930793684 13.809602496587875 2.769659661118192 -6 1 4
208 24 1 1.85173962228483 2.7214038797624207 17.12347182849551 4.058441355271658 2 2 2
211 24 2 -0.927221259584104 2.8314378549275814 12.76083562698804 6.255774818818675 3 1 2
94 11 2 -0.9836433492334087 -0.44655563034444024 15.776821313380292 2.144003865130262 6 1 0
70 8 2 -0.9347487347646131 2.98895731330001 12.15659744061119 3.624472637610276 5 -2 8
442 50 1 1.877383385574227 3.137602563533018 13.11585777100527 7.807803426818071 0 -1 -3
189 21 2 -0.8796533869151311 -0.28891663889361485 17.791116949239626 5.694364074445838 -2 1 0
221 25 2 -0.9824771122691018 -2.929938986282548 12.8882290722354 3.946947232483694 0 -3 1
224 25 2 -0.9652730746223684 -2.504921513266005 11.123836135186664 2.126206566392338 0 -1 0
86 10 2 -0.9760897838259659 -3.156149308703407 15.332472773253475 4.390321315149347 -7 8 2
116 13 2 -0.9424908000099779 -3.2210626389800114 16.44753377239918 9.283699399429265 2 0 6
196 22 2 -0.9448520998394425 -3.1863154946443566 12.391950401364415 7.953145873364586 4 6 -1
212 24 2 -0.8951217911999523 -0.5856303869009913 17.975847682970407 8.249855991472504 -3 -2 -6
481 54 2 -0.8895107626957897 0.9722458334406436 15.209484603901384 9.930581439583118 0 4 2
344 39 1 1.907769478709136 -3.4915167593797642 11.544174743904453 3.2801093594963704 1 0 3
523 59 1 1.950405806208409 3.203790701597475 17.55932844176408 6.9266531586826146 -2 -2 -2
517 58 2 -0.9465207554270287 6.360546507802638 10.341685175273444 8.273806078267985 -4 -4 2
448 50 2 -0.915836881958436 3.7970846841993184 17.2531781603929 2.867034209099071 -2 -12 6
11 2 1 1.857245647997078 9.348497875637333 14.612442498711552 7.331780284110581 3 7 -3
496 56 1 1.809011766517105 10.249188432784106 11.147991691165643 9.741622933869795 -4 0 -4
106 12 2 -0.9224681134752436 3.4503005060503966 16.856295774440202 5.487020693663874 -2 8 -4
176 20 2 -0.9970768466178358 6.002805926075105 15.642797760031371 7.085356906122477 5 -2 -5
460 52 1 1.827257715216194 9.774547084279417 13.819787500135455 2.3739955613762245 5 0 -3
226 26 1 2.080035589856637 4.980963037239137 15.666079931130085 8.307653549145012 3 2 0
414 46 2 -0.9580252492651099 4.661772609039687 13.688081126176566 4.871826296173364 8 1 -1
277 31 2 -0.961844682256266 8.779517096100147 10.616638133427703 9.251175756959983 -2 2 -6
65 8 1 1.783556770648516 5.750631517915336 11.83353931265918 8.468806166592202 4 -4 -6
413 46 2 -0.9091757662882077 6.472664299527402 15.627622210762201 4.617998144230473 3 2 1
526 59 2 -0.8800815028231863 7.312450606140727 10.882243199361419 5.597300863022445 4 -7 2
73 9 1 1.504000724424124 7.9298257299635075 16.117354607917942 1.8896757048387849 -7 1 2
252 28 2 -0.9772268030166126 8.422716181698986 15.64237875133017 6.508739295490516 3 -6 -1
166 19 2 -1.018308978089445 3.991502602904786 14.404805678476759 8.135261692998121 4 -5 3
337 38 2 -0.918562236777528 7.263207590106397 13.227562504934642 4.716322518325947 -6 1 -1
34 4 2 -0.8996062306860073 9.076137006217134 14.733631219989462 8.919353366420603 -5 4 -5
540 60 2 -0.8774966464216224 8.66553011564701 14.952864213243057 2.726060643843989 -1 9 13
71 8 2 -0.9998429582846922 5.799212656749907 15.858276602153367 9.619102122585183 7 -2 -6
410 46 2 -0.9399744786139392 6.375860703679335 12.664574454266454 7.25114473079157 4 -3 3
499 56 2 -0.8110186666677965 6.476618299997154 16.9581626745033 2.0624352985575327 3 -8 1
365 41 2 -1.068341512549646 4.043209896433077 16.887060571517953 8.025331690234019 1 0 -4
453 51 1 1.665496089183895 7.50385381885755 12.432630981683648 6.136485086228642 -6 0 3
431 48 2 -0.8644998557723245 8.842001220648568 13.107001665172884 6.890544715808451 -2 -6 7
154 18 1 1.709534379783166 4.835951865476533 17.166597209994443 1.626197411452017 0 4 2
449 50 2 -0.9308380526200848 5.74869834903013 13.890421826531131 2.6072407474418657 -5 2 -2
438 49 2 -0.9780284261653968 4.731892745286057 11.09248286421407 5.288514615301451 4 -4 -2
14 2 2 -0.8443300175850199 4.046044681734747 11.90421268421862 8.40418709192315 -3 1 2
335 38 1 1.840803257328372 6.021342583103882 14.07892536953625 4.1806795538356125 2 7 0
506 57 1 1.874615289096331 3.7592106214987338 12.35739727094931 5.0132414695344885 -2 -2 0
336 38 1 1.926500318466532 7.014718217103066 16.1809621170809 6.007439004397945 -1 -5 -3
421 47 2 -0.901284908236223 6.899355604494911 17.810120737572404 5.934856439261692 -1 -3 3
26 3 2 -0.9586696696210413 6.3524397284314755 12.3722478825159 9.867467214250501 -1 3 -5
439 49 2 -1.002610661097869 5.851727559690909 10.306337008423096 3.3202176955170075 -7 1 1
491 55 2 -0.9073608907006049 10.23775452945612 12.875003104465453 3.5958268876494026 -6 1 0
471 53 1 1.756943246040194 10.263612284105355 17.716909217236235 4.499363448443413 1 0 -3
186 21 2 -0.9613553897666544 8.706500952815135 18.228378382156883 4.297731836905119 -7 -2 -4
576 64 2 -0.893226374800714 -2.85053141892371 16.53866423396993 1.4927413328918162 -2 4 -3
348 39 2 -0.8964070585050223 10.20849077668199 12.709237889823854 10.275796752164307 -4 1 3
76 9 2 -0.9116624313727986 -3.5591104198386105 16.546766349624697 6.706259434570989 4 4 -4
135 15 2 -0.9749034097488715 1.4145731661232936 13.796389512410911 17.31993368830645 4 -1 -5
138 16 1 1.886908910958986 1.6864886315507368 14.991534610150438 16.32168443534018 6 -1 -3
544 61 2 -0.5375546978172506 -1.2840857855647303 15.528409930106328 13.964979832737352 -5 0 -4
393 44 2 -0.9305815418872808 1.4435554743254473 16.47739202714472 16.90912694474452 -2 3 1
66 8 1 1.75832213836053 -0.7357161124253757 12.209701698930346 12.544416342968509 1 -1 -2
19 3 1 1.942398826293834 1.6237005791434775 12.234768626413572 17.506066671488718 2 -7 -1
428 48 2 -0.962332846902931 0.9342662563099307 14.740619096500158 14.916891861915307 6 0 -3
389 44 1 1.842411337663184 0.18010531502812732 14.983550889205691 13.538940568004843 -1 0 -6
459 51 2 -0.8759813662162711 0.9515007212965942 16.021501465993 12.549085543072698 1 -1 2
153 17 2 -0.9051942915395162 -1.0587454019531162 16.399683864537426 17.38243335768368 1 -2 -2
115 13 2 -0.9004682620851341 -2.439483283606383 11.660251668565454 17.48096991168287 -1 5 -4
407 46 1 1.828269624733571 1.8470715889839475 15.797371630867243 11.166461420745446 2 2 -3
105 12 2 -0.9312911352993019 -0.155568036521744 13.716299546621013 12.677835732256698 4 -2 -5
466 52 2 -0.8845525237586516 -2.299966615459918 12.303209382396968 12.076775815425314 2 -4 9
462 52 1 1.868521625268888 0.15794626007395474 17.46332695173586 17.026702690834707 -11 1 -5
351 39 2 -0.9097112451950119 0.6811650887329215 11.522533482739963 16.412969966717924 -2 -7 0
573 64 2 -0.5251983607763208 0.21345418270271788 11.441573952774991 11.480054077692818 0 -4 -1
398 45 1 1.886296068022853 -2.9434005815247426 13.178610891118979 17.466638892769353 1 3 1
547 61 2 -0.921802252108273 -0.5022237740744862 11.638527558027704 14.051787822457444 1 -3 2
340 38 2 -0.9553003297026146 -2.055655168388356 17.46030610223305 11.416430597679625 1 -5 0
427 48 2 -0.9694959720649579 1.9324374939202027 10.89183576812805 14.13963176850266 2 1 2
263 30 1 1.85976358813033 0.5349572623029362 10.820036356228776 14.936254441485568 7 -1 -3
433 49 1 1.896097386365617 -3.116568675082722 16.313318787495447 10.87705542145346 2 3 -3
22 3 2 -0.9075348214615944 -2.7547440583356346 14.760542060615137 11.094489406446517 -1 3 0
508 57 2 -0.8882251842640486 -1.9041692177123575 14.112287992817876 18.387081654124003 2 6 2
161 18 2 -1.034412046508728 -3.3583535395695643 13.799720400040876 16.089590628716916 1 4 0
435 49 1 1.964060610010312 3.225632673407885 11.48694189323567 13.346241135310915 -6 -1 0
141 16 2 -0.9086999673066556 3.1309251763511483 14.8263132145651 11.426642147906284 6 -7 -2
513 57 2 -0.9232732740377584 3.191647517175049 13.075287376835668 13.374167128926166 -4 4 3
205 23 2 -0.8598967729422869 4.590070274237027 15.6139664201106 18.74278950273571 -1 7 1
150 17 2 -0.8966426525801492 2.2024351600964094 17.27332107165459 10.676281584783263 -5 -1 -6
489 55 1 1.846417287226739 -1.5267464179441412 15.686531119969285 18.768262143016564 -1 0 -2
90 10 2 -0.9681348378976876 -0.04483918564710487 18.081334639081366 15.54257331243609 3 3 10
333 37 2 -0.9667279765847545 3.1332631700564786 11.89830829068006 17.037140281525712 0 -5 2
7 1 2 -0.9128665289921561 3.3291532816543787 10.987179793656733 11.78897363688837 -2 5 -7
247 28 2 -0.8032459400273906 7.273819954386401 14.824094064258283 18.124830942080514 4 -7 3
329 37 2 -0.9033865815168325 4.686950086654747 18.257057422671007 18.181004651829653 2 -4 3
571 64 2 -0.9987504574170414 7.980066448722617 16.15767675825916 13.729063124061192 -2 -2 -1
500 56 2 -0.9257812056321936 1.5362833894755772 11.773665023677506 19.050977763694597 4 -7 -4
42 5 2 -0.942963846712645 4.218262285168735 17.258758875471 15.801876540034154 -1 -2 4
255 29 1 1.860145007464456 9.3760403244926 11.736851057863849 17.740330828125636 7 -1 -2
258 29 2 -0.9121497995957715 10.249708789985002 16.436733135252126 14.517979743500831 -6 3 -1
454 51 2 -0.8618162089796327 3.2672181571341 14.864577323204045 15.95384515825124 1 5 5
562 63 2 -0.8665140535254421 7.506136366879884 17.67592411466484 16.594564500816396 3 -1 -2
437 49 2 -0.8890221947977434 8.949132197590767 16.976760281906056 18.810792945435452 2 2 1
518 58 2 -0.9674856549236736 9.452695042132076 12.046396120431787 16.13151791313299 -8 -1 -1
368 41 2 -1.021804481963516 5.435341858243531 10.698885575208923 16.380456137720405 0 -7 3
541 61 1 1.998119689194486 6.664912297132725 12.886720260571323 11.350292564938037 0 -2 1
326 37 1 1.571091715114505 5.369154490324602 14.185023461814158 18.82876539911389 1 -1 0
355 40 2 -0.9573544097853224 7.397682748292098 17.078603002489192 11.45826904805743 -5 -1 0
480 54 1 1.829642507181971 7.857479683534624 17.49741716810764 12.941592672592373 6 3 6
560 63 1 1.489062969320673 7.178697095979308 15.52578073532526 16.702623050168143 -1 -2 0
23 3 2 -0.9875680376945446 9.250487319418234 11.349964001072227 13.682315677837334 -5 -5 1
185 21 2 -0.9652125867089242 9.550536313935211 13.859990261027377 14.08837121477422 -6 2 -1
261 29 2 -1.101804497218869 4.498470959469774 10.950493392311369 14.043256982514677 -3 -5 -7
253 29 1 1.957473609549321 9.92364918223223 12.399938572951804 14.654856456616349 -2 6 4
114 13 2 -0.9318207252269 9.310055396724282 18.183326198107405 12.893319605310554 3 2 3
341 38 2 -1.040956204775332 7.1538065544774785 11.607412319521593 12.123514162637209 1 -2 4
305 34 2 -0.9949111769124599 4.694277302777378 10.901964597671647 18.8158834600332 -1 -4 13
376 42 2 -0.9331972993219243 7.976070284066029 13.872470342617952 11.189456590485182 -7 -8 -1
434 49 1 1.877926104182323 9.10201944438338 15.32198323507918 14.487868803715001 1 -1 2
416 47 1 1.840153589789977 9.357494578793998 14.114094119452723 10.438926627620269 -1 3 -9
87 10 2 -0.8819498931006002 4.368556850240795 15.515614586830068 13.688037526421645 -2 -9 0
478 54 1 1.955834946020647 7.907942838232303 10.68605342678012 13.112243856877814 5 4 3
225 25 2 -0.9711356870791971 5.137395019623712 13.08653203738412 17.72317070329077 -1 -5 3
193 22 2 -0.939899658077752 8.082755909620754 10.851120275712624 18.18681014075434 0 -3 3
99 11 2 -0.9204899349954949 9.556850974495742 12.995603885868128 18.729007425273572 3 -3 -1
129 15 1 2.032466285115023 4.6849784606840625 11.626815556274686 17.42754353584919 -2 -2 4
134 15 2 -0.9117358602323508 5.978823968626589 15.245749983604817 15.742800346161117 -1 -5 5
219 25 1 1.788862624808635 4.494499709452253 15.778988407425992 15.290538301202952 1 2 1
113 13 2 -0.9743004415060679 5.4114379731819575 13.546257518805167 12.057133218468472 1 -5 1
207 23 2 -0.9939641107561473 4.766401674103468 17.580204596034495 11.166060964120014 -1 0 5
293 33 2 -0.8446122463114878 8.596990164714367 15.130099562942995 15.998865417756583 -2 2 -2
361 41 1 1.778971669431644 4.074651753890101 14.27238352759133 12.636419408785276 -3 -7 2
317 36 1 1.899864190714239 -3.391111701324197 13.483693333250304 11.91854893212255 -4 -1 -1
363 41 1 1.613565376698087 -2.2590097299498515 10.413884152474218 18.506329238669572 -2 -1 0
56 7 1 1.948809321116069 6.152945565776516 17.211834720967392 10.500717700350881 -2 -5 0
343 39 1 1.537426689260255 9.09966229467022 18.245836499203225 17.83564269238292 -3 -3 -1
570 64 1 1.891071002172891 13.04434447117285 5.524094405675741 2.398173607298317 -6 -4 0
91 11 1 1.933291801143379 12.302277429366008 7.6339733195498924 7.799162057990028 7 3 5
162 18 2 -0.89397618789424 12.926977957930704 5.064667810099236 3.9315729490831224 1 0 -5
370 42 1 1.731186719586821 11.973671056157166 4.129880772929741 4.842627794399844 4 0 5
170 19 2 -0.9675855413044578 13.563519163782649 6.996857269628864 7.00650417996267 -5 -7 -3
296 33 2 -0.9468930307065476 15.105790701103642 5.239279168907406 5.825518607565481 -9 -4 -4
405 45 2 -0.9299374382997 15.88939178234646 7.814407520978274 6.13746176919199 5 -2 -3
136 16 1 1.83959594927473 15.065431652705326 6.545258846944377 6.801423980589215 -4 0 2
357 40 2 -0.8820635957989097 15.814704855342812 5.926040162376603 8.137785558462184 2 4 5
295 33 2 -0.9147854901649901 16.06089380557801 7.942752810879534 3.5932180589778344 -6 1 2
45 5 2 -0.9784326106978534 12.781484386093288 9.019325599044087 8.47423582747042 -2 -3 -5
479 54 1 1.872484281690853 14.596095700984181 3.7587145258071626 6.080921184584361 0 -2 1
171 19 2 -0.8997340356059204 12.978442606522686 3.7042549212751554 6.038605588943859 3 -2 3
382 43 2 -0.9355376489534218 10.971839084940317 8.072727008486524 6.920663885158253 -5 5 -5
112 13 2 -1.00432884684667 11.725547792266635 6.741161717873954 8.983984860101462 -7 5 -7
59 7 2 -0.9528655864827721 16.353487500492193 3.9584132974901873 3.2082506210644786 -5 -1 3
487 55 1 1.755879444573122 15.988799353619656 4.40876286470859 8.599874355896402 4 6 4
104 12 2 -0.9199593484686596 15.10285074762866 3.5410187874658665 7.589894663800058 0 -1 4
320 36 2 -0.8960099521149503 11.338439540022238 2.840510081427893 4.053350216191147 -8 -1 -5
43 5 2 -0.9386486693041258 13.338736754848382 7.070067697599826 2.151596353461483 -6 3 -5
55 7 1 1.763042647513413 16.460676454581545 7.8744210439352385 2.0040053424506974 -2 -2 1
155 18 1 1.968850485724415 16.811645006413286 8.304102058144748 4.982886912735773 -4 -1 0
284 32 2 -0.9071808068897228 11.464449272328139 5.310378092188078 2.033555011861234 1 0 -1
49 6 2 -0.9300373184945245 16.867974928443928 6.283975584914842 1.8511032834052454 1 -3 0
5 1 2 -0.8821046466496836 10.748093629180229 5.063564475148192 5.441688108338071 4 9 -1
446 50 2 -0.9122930104993117 10.605495980612849 7.571297676387659 2.8871319563756086 0 -1 3
468 52 2 -0.9194902176311807 15.293090284673765 2.6587777083073076 5.129198174080308 6 -3 9
84 10 1 1.910048809556808 16.505171366451485 2.6617674293805704 4.08808466305256 6 -3 3
418 47 2 -0.9606733476212191 13.40040460424902 2.6571869762812 9.985588849454452 -5 2 1
549 61 2 -0.995344589068197 17.05736842822067 9.874819895130587 5.028952032642991 1 2 2
232 26 2 -0.8923610504282778 15.339656639162 4.263239105688049 10.096837856696226 -4 -2 0
497 56 1 1.77365794074729 10.353532459186082 6.458873164975232 1.7687935762162144 -1 3 3
477 53 2 -0.9790879774730653 10.39652903489342 10.114586269033632 3.623840803498805 2 8 3
179 20 2 -0.8793298563959948 20.725554927043454 4.580937847112833 1.4907274563998785 1 1 -5