LAMMPS data file via write_data, version 2 Aug 2023, timestep = 10000, units = real

2301 atoms
9 atom types
2558 bonds
8 bond types
4639 angles
12 angle types
7296 dihedrals
14 dihedral types
2112 impropers
7 improper types

-17.011999130249023 17.011999130249023 xlo xhi
-17.011999130249023 17.011999130249023 ylo yhi
-17.011999130249023 17.011999130249023 zlo zhi

Masses

1 15.999
2 1.00784
3 12.011
4 12.011
5 12.011
6 1.008
7 1.008
8 14.007
9 65.38

Pair Coeffs # lj/cut/tip4p/long

1 0.1848 3.165
2 0 0
3 0.086 3.4
4 0.086 3.4
5 0.1094 3.4
6 0.015 2.511
7 0.0157 2.65
8 0.17 3.25
9 0.0125 1.96

Bond Coeffs # harmonic

1 0 0.9572
2 346.543 1.49
3 488 1.335
4 540.249 1.35
5 367 1.08
6 440.221 1.37
7 340 1.09
8 78.5 2.011

Angle Coeffs # harmonic

1 0 104.52
2 48.088 109.32
3 71.254 105.27
4 48.68 128.33
5 49.451 125.67
6 76.75 108.65
7 32.477 126.4
8 66.015 123.92
9 49.954 125.68
10 35 109.5
11 75.484 112.16
12 35.24 109.48

Dihedral Coeffs # charmm

1 0 0 0 0
2 2.325 2 180 0
3 2.325 2 180 0
4 0 0 0 0
5 5 2 180 0
6 5 2 180 0
7 5.15 2 180 0
8 5.15 2 180 0
9 2.325 2 180 0
10 2.325 2 180 0
11 0 0 0 0
12 5 2 180 0
13 5 2 180 0
14 5.15 2 180 0

Improper Coeffs # harmonic

1 0 0
2 2 180
3 2 180
4 2 180
5 0 0
6 0 0
7 0 0

Atoms # full

2266 21 1 -1.054 -15.41941872256234 -13.189196385847334 -15.485279201319488 0 0 0
2267 21 2 0.527 -15.479820972067175 -12.428399247661451 -16.05074187206889 0 0 0
2268 21 2 0.527 -16.30051314801862 -13.272551717623095 -15.098680594205353 0 0 0
1196 1 6 0.158343478261 16.84964921175661 -8.918581776719762 -11.491614776745497 0 0 0
6 1 9 0.736043478261 -2.929827569766273 -12.901446621884784 -9.144181364606123 0 0 0
19 1 3 0.433743478261 -2.6978890028021287 -10.637235348362422 -15.62814598636279 0 0 0
20 1 3 0.433743478261 -3.0034148811509587 -10.743607997232068 -11.311862056631064 0 0 0
21 1 3 0.433743478261 -2.7010404506096566 -15.079388351383477 -11.224199859650339 0 0 0
22 1 3 0.433743478261 -2.7234531212664828 -15.07554849247199 -15.604931946655594 0 0 0
43 1 4 -0.192556521739 -4.483409404136729 -9.524160330256551 -15.930607921846603 0 0 0
44 1 4 -0.192556521739 -1.0773739799778 -9.756347912095137 -11.213676155308848 0 0 0
45 1 4 -0.192556521739 -4.591122568147737 -16.053463548583558 -11.464552973155058 0 0 0
46 1 4 -0.192556521739 -0.7666299366406479 -15.9613800208883 -15.643987581530542 0 0 0
47 1 4 -0.192556521739 -4.753854228190937 -15.10046291100674 -10.548716928344284 0 0 0
48 1 4 -0.192556521739 -1.101727631275441 -10.684300311080332 -10.25950916116294 0 0 0
49 1 4 -0.192556521739 -4.43401497343023 -10.542013482594394 -16.863346515704936 0 0 0
50 1 4 -0.192556521739 -0.8395680025694762 -14.963716716892575 -16.570598847238823 0 0 0
91 1 6 0.158343478261 -5.216093451274051 -8.672252511050045 -15.882409737251987 0 0 0
93 1 6 0.158343478261 -5.275151469421066 -16.790469328991918 -11.722585043108142 0 0 0
95 1 6 0.158343478261 -5.641542604752535 -15.01026563592091 -9.95832535175448 0 0 0
139 1 5 -0.602556521739 -1.398788652080998 -11.156044441957492 -14.973665541352922 0 0 0
140 1 5 -0.602556521739 -4.332824376512203 -11.192623807520002 -11.829475268528762 0 0 0
141 1 5 -0.602556521739 -1.2510787055433885 -14.732979253059069 -11.453698210056901 0 0 0
142 1 5 -0.602556521739 -4.020537675653361 -14.618885245190931 -15.127067764472457 0 0 0
163 1 7 0.157043478261 -0.661126325600367 -15.55492873208832 -11.30059052124475 0 0 0
164 1 7 0.157043478261 -4.710917752390573 -14.313580720485968 -15.927796291956376 0 0 0
165 1 7 0.157043478261 -0.7764215665061213 -10.388056215704 -14.556869743138115 0 0 0
166 1 7 0.157043478261 -4.155991004087787 -12.129480872689927 -12.251260904174357 0 0 0
167 1 7 0.157043478261 -0.7208254308083266 -11.744378770304275 -15.698353434024538 0 0 0
168 1 7 0.157043478261 -3.906992579540579 -13.735152503396373 -14.466447138704304 0 0 0
169 1 7 0.157043478261 -0.8948631799222727 -14.020268285683795 -10.667796224848551 0 0 0
170 1 7 0.157043478261 -4.666630716189083 -10.463524439303622 -12.572086490054026 0 0 0
211 1 7 0.157043478261 -1.0663922105686383 -14.372127388003 -12.504087140987012 0 0 0
212 1 7 0.157043478261 -4.5256597359162525 -15.392886605579351 -14.538317900995992 0 0 0
213 1 7 0.157043478261 -1.4552257026268698 -11.785776061532147 -14.099444186119353 0 0 0
214 1 7 0.157043478261 -5.033810367070088 -11.259075905111965 -11.034764444266342 0 0 0
235 1 8 -0.300956521739 -3.3759154275432066 -9.642147331763688 -15.12607912842663 0 0 0
236 1 8 -0.300956521739 -2.312585839304155 -9.683416954897753 -11.848922031820036 0 0 0
237 1 8 -0.300956521739 -3.3416941246511347 -15.956786970177495 -11.989008969693835 0 0 0
238 1 8 -0.300956521739 -1.9878360473009158 -15.988189810516486 -14.97495039534429 0 0 0
239 1 8 -0.300956521739 -3.521252610369729 -14.419195754434497 -10.409475673379676 0 0 0
240 1 8 -0.300956521739 -2.3534757534837087 -11.258797308773351 -10.23249381261811 0 0 0
241 1 8 -0.300956521739 -3.334253118856325 -11.306672541662753 -16.660417118011825 0 0 0
242 1 8 -0.300956521739 -2.0744071114025435 -14.454511603209554 -16.590576388454508 0 0 0
97 1 6 0.158343478261 -5.150310713565207 -10.634244425839467 16.35410957839957 0 0 -1
2244 13 2 0.527 -6.75651140921507 -15.970516357778953 -13.527352410215348 0 1 0
2242 13 1 -1.054 -7.20452330162606 -16.826717859214078 -13.627389740892697 0 1 0
94 1 6 0.158343478261 0.10750544336942168 -16.495610188908675 -15.490023822151732 0 0 0
275 1 9 0.736043478261 -2.4745258633238505 16.919314525716814 -13.440613228871847 0 -1 0
110 1 6 0.158343478261 -4.726701222381773 -10.328515298193444 -8.694972001480867 0 0 0
92 1 6 0.158343478261 -0.16916543682528346 -9.168994501513152 -11.414832745746763 0 0 0
96 1 6 0.158343478261 -0.23119062509917981 -11.055647042563553 -9.70234200611245 0 0 0
1110 1 9 0.736043478261 14.297351118297584 -12.705665052224099 -9.2329375000827 0 0 0
1123 1 3 0.433743478261 14.220799118498123 -10.77726557270888 -15.448451201408593 0 0 0
1124 1 3 0.433743478261 14.121313266908942 -10.665395855051253 -11.33539722224491 0 0 0
1125 1 3 0.433743478261 14.4726686635344 -14.88512863261013 -11.378391774617134 0 0 0
1126 1 3 0.433743478261 14.089664856277341 -14.841301109106347 -15.426992265213418 0 0 0
1147 1 4 -0.192556521739 12.289438959917653 -9.825269361611998 -15.323360905919785 0 0 0
1148 1 4 -0.192556521739 16.079672650313867 -9.612530142334004 -11.309570743989 0 0 0
1149 1 4 -0.192556521739 12.548321728548002 -15.908973629003244 -11.328595612636015 0 0 0
1150 1 4 -0.192556521739 16.020347051926702 -15.868934467286278 -15.565688333572622 0 0 0
1151 1 4 -0.192556521739 12.557037049641771 -14.922886580513422 -10.380021882321099 0 0 0
1152 1 4 -0.192556521739 16.098716985869334 -10.556602699340413 -10.298092026803547 0 0 0
1153 1 4 -0.192556521739 12.273436868358365 -10.847764454853287 -16.241776275547597 0 0 0
1154 1 4 -0.192556521739 16.002446005112795 -14.910984021327744 -16.480214010351485 0 0 0
1195 1 6 0.158343478261 11.47070243490021 -9.194722104344846 -15.038449067164146 0 0 0
1197 1 6 0.158343478261 11.944222409153294 -16.71843328257064 -11.530106850131869 0 0 0
1198 1 6 0.158343478261 16.803441635045235 -16.585732479496148 -15.553759346396584 0 0 0
1199 1 6 0.158343478261 11.769251670994358 -14.536833669540046 -9.688175837791615 0 0 0
1200 1 6 0.158343478261 16.907496757048676 -10.767382826707292 -9.630873459968354 0 0 0
1243 1 5 -0.602556521739 15.642133681309694 -10.993289483122092 -15.092112806395098 0 0 0
1244 1 5 -0.602556521739 12.828006143041762 -11.163511420374046 -11.84887225561183 0 0 0
1245 1 5 -0.602556521739 15.866666437048185 -14.477451722421373 -11.828841757524899 0 0 0
1246 1 5 -0.602556521739 12.774470489583893 -14.41147287049124 -15.025209390244525 0 0 0
1267 1 7 0.157043478261 16.461407246001144 -15.376939125402195 -12.03360240019088 0 0 0
1268 1 7 0.157043478261 12.245789859793062 -13.935255591098358 -15.778516267320498 0 0 0
1269 1 7 0.157043478261 15.883553070967778 -11.988861524480834 -15.273221523746797 0 0 0
1270 1 7 0.157043478261 12.75676617504804 -12.174761112175416 -11.560992077955449 0 0 0
1271 1 7 0.157043478261 15.839386627076435 -10.631415073055862 -14.07133764879792 0 0 0
1272 1 7 0.157043478261 12.902057290639005 -13.815797156518348 -14.122606457954001 0 0 0
1273 1 7 0.157043478261 16.256600764442585 -13.736266236998146 -11.192369340507833 0 0 0
1274 1 7 0.157043478261 12.819867261261061 -11.323918774281971 -12.937260658798772 0 0 0
1315 1 7 0.157043478261 15.88403417694534 -14.07064422228182 -12.827280616583858 0 0 0
1316 1 7 0.157043478261 12.116058584664152 -15.279619494905548 -14.81462563816956 0 0 0
1317 1 7 0.157043478261 16.274905127179384 -10.416920953991143 -15.827011170335837 0 0 0
1318 1 7 0.157043478261 11.950460476494545 -10.521529249033922 -11.599172114776207 0 0 0
1339 1 8 -0.300956521739 13.595580658669418 -9.689030385224827 -14.917263019677787 0 0 0
1340 1 8 -0.300956521739 14.815564957045071 -9.665768560259556 -11.934064109635717 0 0 0
1341 1 8 -0.300956521739 13.799115926889163 -15.883401857049348 -11.907089642119145 0 0 0
1342 1 8 -0.300956521739 14.814499226877652 -15.79533929841056 -14.902510833083163 0 0 0
1343 1 8 -0.300956521739 13.796612364800408 -14.26955434177134 -10.400994275568262 0 0 0
1344 1 8 -0.300956521739 14.88100098267054 -11.216956321694319 -10.360716059063192 0 0 0
1345 1 8 -0.300956521739 13.492680796995936 -11.341176091323486 -16.4520237775385 0 0 0
1346 1 8 -0.300956521739 14.79314469029965 -14.307858093157822 -16.427468565958385 0 0 0
1213 1 6 0.158343478261 15.893583316739207 -15.36841027995247 -8.555209552329368 0 0 0
1109 1 9 0.736043478261 14.156648274557032 -8.526264040775477 -13.415445708405025 0 0 0
1214 1 6 0.158343478261 12.591107440003022 -10.091130911682946 -8.612094808408402 0 0 0
1201 1 6 0.158343478261 11.39931301295565 -11.224065970341455 -16.744057746932203 0 0 0
1202 1 6 0.158343478261 16.86019589874001 -14.71249894786957 16.901904925117403 0 0 -1
1 1 9 0.736043478261 -11.175627960283796 -4.21026956477823 -9.225355116355828 0 0 0
11 1 3 0.433743478261 -13.38644437757817 -4.2389504730393055 -11.296008197073707 0 0 0
12 1 3 0.433743478261 -9.1086851886715 -4.3383620494355215 -11.386145918345235 0 0 0
13 1 3 0.433743478261 -9.175232844891992 -4.137666888106882 -15.4053902927522 0 0 0
14 1 3 0.433743478261 -13.396519782545573 -4.353387331706586 -15.349681494063995 0 0 0
35 1 4 -0.192556521739 -13.427230011723335 -6.155021477039603 -10.268652580836914 0 0 0
36 1 4 -0.192556521739 -8.986879689903551 -2.4861556957027133 -10.372485203300362 0 0 0
37 1 4 -0.192556521739 -9.057967944133608 -5.967601856396529 -16.50118458767049 0 0 0
38 1 4 -0.192556521739 -13.50719168816279 -2.4818201116078065 -16.31530666059403 0 0 0
57 1 4 -0.192556521739 -14.442937725777476 -6.159008225847636 -11.130957498938386 0 0 0
58 1 4 -0.192556521739 -14.528026058054216 -2.5724820206227825 -15.45041398140856 0 0 0
83 1 6 0.158343478261 -13.01284050666914 -7.004400084966806 -9.728484436662612 0 0 0
84 1 6 0.158343478261 -9.220540933292702 -1.664100216943167 -9.746562198639932 0 0 0
105 1 6 0.158343478261 -15.052180607977888 -7.009261632609629 -11.438582756255565 0 0 0
106 1 6 0.158343478261 -15.26144895762971 -1.8193486832951162 -15.255555832103063 0 0 0
131 1 5 -0.602556521739 -13.156949449508163 -2.8139250408290986 -11.69882969301223 0 0 0
132 1 5 -0.602556521739 -9.629274988663031 -5.666093070283598 -11.87832296391904 0 0 0
133 1 5 -0.602556521739 -9.689202718490407 -2.796232749204265 -14.880087751289752 0 0 0
134 1 5 -0.602556521739 -12.93688835195193 -5.70621771643315 -14.997196633647437 0 0 0
155 1 7 0.157043478261 -8.878572804113832 -2.0774756631930633 -14.905214263221012 0 0 0
156 1 7 0.157043478261 -12.429025491385936 -5.642056494344807 -14.063121080112722 0 0 0
157 1 7 0.157043478261 -12.584456603085545 -2.362194252091113 -10.854056628670518 0 0 0
158 1 7 0.157043478261 -10.45245302600532 -5.604400931278272 -12.613730288110153 0 0 0
175 1 7 0.157043478261 -14.044166142547958 -2.345539773604285 -11.97850881744442 0 0 0
176 1 7 0.157043478261 -12.239096213056806 -6.091562778278337 -15.809451123084903 0 0 0
177 1 7 0.157043478261 -10.016132433703786 -2.9050526152889318 -13.866100420272039 0 0 0
178 1 7 0.157043478261 -10.063910421957528 -6.201637544548116 -11.008049306321873 0 0 0
203 1 7 0.157043478261 -10.54721863900015 -2.4801046409647816 -15.479579468490671 0 0 0
204 1 7 0.157043478261 -13.788155505833627 -6.451491935846285 -15.00300382341681 0 0 0
205 1 7 0.157043478261 -12.49116642455424 -2.7798408636064345 -12.616973459987795 0 0 0
206 1 7 0.157043478261 -8.810509300734362 -6.364356792007282 -12.140434127014311 0 0 0
227 1 8 -0.300956521739 -12.741937925781 -4.896958601669295 -10.388723416077918 0 0 0
228 1 8 -0.300956521739 -9.66728700434833 -3.6533818083735805 -10.388571871904574 0 0 0
229 1 8 -0.300956521739 -9.763399989847867 -4.75825654172898 -16.424600465588068 0 0 0
230 1 8 -0.300956521739 -12.823607386123703 -3.668544214344298 -16.3312342393379 0 0 0
249 1 8 -0.300956521739 -14.469573712184115 -4.916210262764732 -11.733362057922168 0 0 0
250 1 8 -0.300956521739 -14.457413675389892 -3.767527389849405 -14.796905658709361 0 0 0
276 1 9 0.736043478261 -15.664305237357675 -4.294917703047267 -13.262298688692539 0 0 0
1215 1 6 0.158343478261 -16.032169572787815 -6.13003438203797 -16.067588815582077 1 0 0
1216 1 6 0.158343478261 -16.151200309542364 -2.330761146726368 -10.81215464483542 1 0 0
1168 1 4 -0.192556521739 -16.785281803902055 -2.166398841397073 -11.664752160038677 1 0 0
1167 1 4 -0.192556521739 -16.732659994173257 -6.36273299193867 -15.290395793341212 1 0 0
1359 1 8 -0.300956521739 -16.79538641267842 -5.775703264860871 -14.043385746745948 1 0 0
1360 1 8 -0.300956521739 -16.77550886116104 -2.7637826818881117 -12.863213903765386 1 0 0
121 1 6 0.158343478261 -13.897671017529662 -2.305206844418041 -8.653817536851491 0 0 0
122 1 6 0.158343478261 -8.642787769952292 -6.3404157694775565 -9.059121587164153 0 0 0
5 1 9 0.736043478261 -2.8751558355702116 -8.588584842097719 -13.451917780578299 0 0 0
248 1 8 -0.300956521739 -8.017534490750284 -3.674459583363252 -11.927483513082496 0 0 0
55 1 4 -0.192556521739 -8.106105447231325 -5.990577479906679 -15.589402031192881 0 0 0
247 1 8 -0.300956521739 -8.076437766120579 -4.765958776881765 -14.92515362717334 0 0 0
56 1 4 -0.192556521739 -7.9603418683497855 -2.478858559761833 -11.266161702820522 0 0 0
103 1 6 0.158343478261 -7.4023965816953705 -6.852481922659639 -15.394996374010857 0 0 0
104 1 6 0.158343478261 -7.3433882748184995 -1.6947107127866796 -11.562762751020141 0 0 0
10 1 9 0.736043478261 -6.9633988502065876 -4.232156193099252 -13.54641325056745 0 0 0
27 1 3 0.433743478261 -0.7457488055026307 -6.4211019362869655 -13.192121406013552 0 0 0
28 1 3 0.433743478261 -0.6230572639390951 -2.022052908565036 -13.578141508286036 0 0 0
29 1 3 0.433743478261 -4.704823016855787 -2.104734571317953 -13.386328494568401 0 0 0
30 1 3 0.433743478261 -4.790621529286902 -6.320943604757425 -13.562686753089789 0 0 0
65 1 4 -0.192556521739 -5.778148975878409 -2.0046748255163855 -15.294197318436924 0 0 0
66 1 4 -0.192556521739 -6.135435946282856 -6.620574438243493 -11.790609419611378 0 0 0
75 1 4 -0.192556521739 -4.835838510091445 -1.0020702614879204 -15.27391202294751 0 0 0
76 1 4 -0.192556521739 -0.7076296471128233 -1.182880502970013 -11.637434166221434 0 0 0
77 1 4 -0.192556521739 -0.7065009579329317 -7.238592791296606 -15.195041134335584 0 0 0
78 1 4 -0.192556521739 -5.169858032161185 -7.567235418495926 -11.835764118843745 0 0 0
113 1 6 0.158343478261 -6.617968194260241 -2.081214783290419 -16.019957837643126 0 0 0
114 1 6 0.158343478261 -6.957816173635637 -6.5507075713443035 -11.07814458873634 0 0 0
123 1 6 0.158343478261 -4.659083608082034 -0.1514992700254935 -16.0038986836416 0 0 0
125 1 6 0.158343478261 -0.8850243006257695 -7.894476805134424 -16.026719287516205 0 0 0
126 1 6 0.158343478261 -5.012353771177922 -8.36833347073741 -11.047091206077932 0 0 0
147 1 5 -0.602556521739 -1.1303805581423225 -6.170470197143536 -11.756301502505721 0 0 0
148 1 5 -0.602556521739 -1.0262104196246176 -2.35103352816176 -14.953158831673665 0 0 0
149 1 5 -0.602556521739 -4.375474304586788 -2.5382731435671135 -11.92425631623541 0 0 0
150 1 5 -0.602556521739 -4.0412187588876085 -5.680266430434736 -14.652286731442127 0 0 0
183 1 7 0.157043478261 -5.1545519728877 -3.1261083542394688 -11.481943768537793 0 0 0
184 1 7 0.157043478261 -4.259209212425594 -4.617983617860204 -14.805998630372857 0 0 0
185 1 7 0.157043478261 -2.108803655007258 -6.53822428372736 -11.571045192329498 0 0 0
186 1 7 0.157043478261 -1.7076618196861542 -3.2158651815624806 -14.968367317242222 0 0 0
195 1 7 0.157043478261 -1.1224061086544996 -5.151648613928117 -11.412206505449067 0 0 0
196 1 7 0.157043478261 -4.338107890084503 -6.170983907507271 -15.54843125999174 0 0 0
197 1 7 0.157043478261 -4.336111667834494 -1.7161630519134141 -11.23002816542937 0 0 0
198 1 7 0.157043478261 -0.15761105550589435 -2.619528196835355 -15.590902910590218 0 0 0
219 1 7 0.157043478261 -3.4087515939724207 -3.012059699591688 -11.857818345472415 0 0 0
220 1 7 0.157043478261 -2.938303860884588 -5.608076444644853 -14.579842753123245 0 0 0
221 1 7 0.157043478261 -0.5288569733929578 -6.7238958413424905 -11.061647072156045 0 0 0
222 1 7 0.157043478261 -1.5825950722250017 -1.5450906151478099 -15.38830706200921 0 0 0
257 1 8 -0.300956521739 -5.668970398085116 -2.684576160638063 -14.080949312724174 0 0 0
258 1 8 -0.300956521739 -5.910898276775373 -5.836646424236322 -12.886293485377793 0 0 0
267 1 8 -0.300956521739 -4.132684277560317 -1.1354074556043332 -14.103168910248627 0 0 0
268 1 8 -0.300956521739 -1.1499040248298422 -1.0975302655438175 -12.868887303199845 0 0 0
269 1 8 -0.300956521739 -1.3253402152628693 -7.342459818444339 -13.97490431615398 0 0 0
270 1 8 -0.300956521739 -4.403592613364086 -7.460127855871977 -12.93066381131568 0 0 0
124 1 6 0.158343478261 -1.12620858540626 -0.6039241637235505 -10.851064778467274 0 0 0
827 1 9 0.736043478261 -2.7209535576944908 0.14160713473883033 -13.463719429781388 0 0 0
63 1 4 -0.192556521739 0.2576731014217136 -6.3395945689510125 -15.050056797797735 0 0 0
64 1 4 -0.192556521739 0.21175280190728601 -2.1941221610958332 -11.592380657838946 0 0 0
255 1 8 -0.300956521739 0.1926298050873253 -5.742465379772684 -13.840627558268476 0 0 0
256 1 8 -0.300956521739 0.2408793605138291 -2.7319323442736096 -12.874567997080787 0 0 0
112 1 6 0.158343478261 0.9184717182289779 -2.4637714940893645 -10.795113654027718 0 0 0
111 1 6 0.158343478261 0.9737073017547032 -5.952634047532163 -15.81074882096935 0 0 0
1115 1 3 0.433743478261 3.375777036866004 -4.25850444082571 -11.275484170327681 0 0 0
1116 1 3 0.433743478261 7.703409369531904 -4.35418079728875 -11.443569175948351 0 0 0
1117 1 3 0.433743478261 7.729695913498051 -4.1932386724523365 -15.614223319171517 0 0 0
1118 1 3 0.433743478261 3.6345569515115534 -4.388842115395182 -15.37142845033151 0 0 0
1139 1 4 -0.192556521739 3.422084996831196 -6.173670869409055 -10.258570442784906 0 0 0
1140 1 4 -0.192556521739 7.684168191500062 -2.4446610655730234 -10.482588776461322 0 0 0
1141 1 4 -0.192556521739 7.667044834121383 -6.150677802747135 -16.475890993146873 0 0 0
1142 1 4 -0.192556521739 3.520571214566969 -2.509447788261322 -16.37750132670871 0 0 0
1161 1 4 -0.192556521739 2.4590095816407955 -6.145357175541405 -11.21578724533704 0 0 0
1162 1 4 -0.192556521739 2.589139720616899 -2.5204053371525017 -15.359841961442534 0 0 0
1187 1 6 0.158343478261 3.7268356193087033 -7.0699843560774545 -9.799005636768218 0 0 0
1188 1 6 0.158343478261 7.358365646650289 -1.610053711997726 -9.843897514257781 0 0 0
1209 1 6 0.158343478261 1.8557660784882377 -6.955769409273738 -11.515628583112965 0 0 0
1210 1 6 0.158343478261 1.9740145805993832 -1.6903811560960766 -15.06447745748121 0 0 0
1235 1 5 -0.602556521739 3.890325591617857 -2.917170648428813 -11.732490014116538 0 0 0
1236 1 5 -0.602556521739 7.320133152026201 -5.761159326839885 -11.804492799044288 0 0 0
1237 1 5 -0.602556521739 7.329117076329365 -2.8045367535043675 -15.274297767569367 0 0 0
1238 1 5 -0.602556521739 4.026324374299487 -5.730206718371022 -15.015627147715152 0 0 0
1259 1 7 0.157043478261 8.196174059412636 -2.3528068742652097 -14.923645466185992 0 0 0
1260 1 7 0.157043478261 4.2687677160940485 -6.217925255364629 -15.897475978281125 0 0 0
1261 1 7 0.157043478261 3.1006864816705333 -2.214237593806677 -12.099300300207533 0 0 0
1262 1 7 0.157043478261 8.275908439244551 -6.2611370204890715 -12.002282068678864 0 0 0
1279 1 7 0.157043478261 4.5550177334058395 -3.22994944262996 -12.586038386217366 0 0 0
1280 1 7 0.157043478261 3.1243605726061303 -6.280461265432729 -14.58147530317976 0 0 0
1281 1 7 0.157043478261 6.462640320970676 -2.873905519059214 -14.605063287661192 0 0 0
1282 1 7 0.157043478261 6.733052302522527 -5.669708968444436 -12.687695335338164 0 0 0
1307 1 7 0.157043478261 7.004897669106024 -2.2374557987833645 -16.19927857248094 0 0 0
1308 1 7 0.157043478261 4.827154618557457 -5.709359147327559 -14.334684568057263 0 0 0
1309 1 7 0.157043478261 4.600202644223995 -2.4501109691020706 -11.080288336823884 0 0 0
1310 1 7 0.157043478261 6.7547241555069455 -6.132597998486444 -10.938703737438688 0 0 0
1331 1 8 -0.300956521739 3.9976617204762737 -4.938443411856688 -10.301400708836264 0 0 0
1332 1 8 -0.300956521739 7.083479635599974 -3.636746355879547 -10.479249829637213 0 0 0
1333 1 8 -0.300956521739 7.062322208203421 -4.975273839429765 -16.473368271510267 0 0 0
1334 1 8 -0.300956521739 4.167249765009041 -3.7460017231384355 -16.425872071262134 0 0 0
1353 1 8 -0.300956521739 2.3828762947317017 -4.926394070611127 -11.790093316415785 0 0 0
1354 1 8 -0.300956521739 2.5466103422555975 -3.7278818823355073 -14.832963304003197 0 0 0
1380 1 9 0.736043478261 1.3314980744579703 -4.293683234067 -13.395458330851477 0 0 0
1105 1 9 0.736043478261 5.608308262372324 -4.387416817805676 -9.219010188567404 0 0 0
1160 1 4 -0.192556521739 8.686017683113315 -2.4310953936167565 -11.43704141348252 0 0 0
1351 1 8 -0.300956521739 8.635969422423736 -4.929268417617821 -14.882336243241575 0 0 0
1352 1 8 -0.300956521739 8.698561702301133 -3.669673267425632 -12.026476198842152 0 0 0
1159 1 4 -0.192556521739 8.596618884100094 -6.186848670732148 -15.466732183536314 0 0 0
1207 1 6 0.158343478261 9.200388826137022 -7.0607021052614405 -15.290549948488884 0 0 0
1208 1 6 0.158343478261 9.301108734938227 -1.566186461052765 -11.64493847915296 0 0 0
1114 1 9 0.736043478261 9.860477319760054 -4.385412767175191 -13.495774143723393 0 0 0
1131 1 3 0.433743478261 16.17981834053679 -6.23313355302266 -13.401199846932153 0 0 0
1132 1 3 0.433743478261 16.312653669475484 -2.208917396939601 -13.56121006852646 0 0 0
1133 1 3 0.433743478261 12.171646695637971 -2.5216550766023467 -13.589764187893378 0 0 0
1134 1 3 0.433743478261 12.153190200512109 -6.317169510817246 -13.473593760865661 0 0 0
1169 1 4 -0.192556521739 11.258710680378337 -2.483596033433274 -15.50231251943666 0 0 0
1170 1 4 -0.192556521739 10.964343670382199 -6.520180064736263 -11.718336451034912 0 0 0
1179 1 4 -0.192556521739 12.24147172107959 -1.5277279478005081 -15.52484694237092 0 0 0
1180 1 4 -0.192556521739 16.299447775758143 -1.2184180967931122 -11.702563532517374 0 0 0
1181 1 4 -0.192556521739 16.412768752518815 -7.393227859908183 -15.246520069391645 0 0 0
1182 1 4 -0.192556521739 11.925563929954949 -7.467007982379413 -11.663103650649628 0 0 0
1217 1 6 0.158343478261 10.687929997727073 -2.841112455937423 -16.354955411358127 0 0 0
1218 1 6 0.158343478261 10.203201393456435 -6.466221726487341 -10.967328018533895 0 0 0
1228 1 6 0.158343478261 16.132672431485823 -0.4852968162580187 -10.891672223764415 0 0 0
1229 1 6 0.158343478261 16.285878504202113 -8.156277832854652 -15.926533200989217 0 0 0
1230 1 6 0.158343478261 12.115580841747935 -7.998054333599782 -10.776293883440212 0 0 0
1251 1 5 -0.602556521739 15.875269471317667 -5.949613766846969 -12.019978136280406 0 0 0
1252 1 5 -0.602556521739 15.971683617090019 -2.660230746897448 -14.914350509291818 0 0 0
1253 1 5 -0.602556521739 12.460124992274954 -3.054532762544677 -12.232223668907125 0 0 0
1254 1 5 -0.602556521739 12.649384918533555 -5.841564213582532 -14.77787129444612 0 0 0
1287 1 7 0.157043478261 12.835885805740343 -2.319800770983228 -11.566044851763383 0 0 0
1288 1 7 0.157043478261 13.123615749645275 -6.6843166350340315 -15.297472884330618 0 0 0
1289 1 7 0.157043478261 15.338920663571585 -6.8371737066357365 -11.700989076475137 0 0 0
1290 1 7 0.157043478261 15.043176229158416 -3.0720083646483807 -14.984178777319784 0 0 0
1299 1 7 0.157043478261 15.181664970161428 -5.134059221550149 -11.961207943528255 0 0 0
1300 1 7 0.157043478261 13.312172921467324 -5.0474727264448696 -14.564574264179505 0 0 0
1301 1 7 0.157043478261 13.232193138482549 -3.820186077290725 -12.22829468633093 0 0 0
1302 1 7 0.157043478261 16.69811044681245 -3.3188788993077103 -15.385573738448805 0 0 0
1323 1 7 0.157043478261 11.503047748389676 -3.3624610333437275 -11.757373031878773 0 0 0
1324 1 7 0.157043478261 11.895839820571549 -5.3525060567709914 -15.315835692551442 0 0 0
1325 1 7 0.157043478261 16.78664894233215 -5.856241331679288 -11.329117126448232 0 0 0
1326 1 7 0.157043478261 15.828303757323175 -1.7634801367988568 -15.581588653263072 0 0 0
1361 1 8 -0.300956521739 11.085165708123354 -2.937982690548526 -14.22961100780553 0 0 0
1362 1 8 -0.300956521739 11.078042405138259 -5.817164822122227 -12.851982381858145 0 0 0
1371 1 8 -0.300956521739 12.702326528983003 -1.4362376554317358 -14.181859671706347 0 0 0
1372 1 8 -0.300956521739 15.702274551967415 -1.2411192178193546 -12.87174525971083 0 0 0
1373 1 8 -0.300956521739 15.682326885001094 -7.2937937175042205 -14.070133385311177 0 0 0
1374 1 8 -0.300956521739 12.667260918097048 -7.334007203938704 -12.799313101885536 0 0 0
1227 1 6 0.158343478261 12.5766858264311 -0.9191809677103691 -16.45131332439789 0 0 0
2224 7 1 -1.054 -12.045800260940926 4.778659535813937 -14.611318040301011 0 0 0
2225 7 2 0.527 -11.140867625968339 5.041780556789734 -14.778089492715528 0 0 0
2226 7 2 0.527 -12.410104519599518 5.5337083676230625 -14.147763264822565 0 0 0
2233 10 1 -1.054 -13.257823185541682 3.2357188839975435 -12.529260643578313 0 0 0
2234 10 2 0.527 -13.674193150083248 2.3784621188188657 -12.539451667056095 0 0 0
2235 10 2 0.527 -13.145254739163674 3.4362967302477205 -13.459145050460393 0 0 0
1752 1 6 0.158343478261 16.499576372598447 5.896787851887473 -9.666970197295182 0 0 0
571 1 3 0.433743478261 -2.706704714648449 6.258374863208696 -15.468134026640959 0 0 0
572 1 3 0.433743478261 -3.0099492666266587 6.2940716515011275 -11.395147922628938 0 0 0
573 1 3 0.433743478261 -2.827526771455302 2.282235042989177 -11.366860073577 0 0 0
574 1 3 0.433743478261 -2.932595951079294 2.163431293395242 -15.494320469432868 0 0 0
595 1 4 -0.192556521739 -4.5610145163938265 7.385273276053439 -15.628536718848485 0 0 0
596 1 4 -0.192556521739 -1.2396180941461812 7.442837482034546 -11.160522316167523 0 0 0
597 1 4 -0.192556521739 -4.725495071218071 1.1864837918488527 -11.48742536853393 0 0 0
598 1 4 -0.192556521739 -0.9983298618905617 1.2684782746503416 -15.459537606932411 0 0 0
599 1 4 -0.192556521739 -4.836171411620625 2.151733113695405 -10.51922974652508 0 0 0
600 1 4 -0.192556521739 -1.2969940938735536 6.494124592020811 -10.209698670713067 0 0 0
601 1 4 -0.192556521739 -4.614213333499798 6.357692934731183 -16.525169416186014 0 0 0
602 1 4 -0.192556521739 -0.995562896106622 2.246374161528439 -16.382775429229508 0 0 0
643 1 6 0.158343478261 -5.402963792099356 8.097521232620922 -15.519545362517357 0 0 0
644 1 6 0.158343478261 -0.3914374069882019 8.108578869172884 -11.246473915582175 0 0 0
645 1 6 0.158343478261 -5.498961671720229 0.4980223622388004 -11.87449989073841 0 0 0
646 1 6 0.158343478261 -0.24600007640744645 0.52905205826824 -15.181907123301047 0 0 0
647 1 6 0.158343478261 -5.6780980511645796 2.5072622948531076 -9.971812917413004 0 0 0
691 1 5 -0.602556521739 -1.2907935084051845 5.852515909861657 -15.072645861432669 0 0 0
692 1 5 -0.602556521739 -4.338866387992021 5.882218037949023 -11.877618015096939 0 0 0
693 1 5 -0.602556521739 -1.4016470772445484 2.5626171148926837 -11.644887842579863 0 0 0
694 1 5 -0.602556521739 -4.360399437569033 2.5468829903904555 -15.163692798437209 0 0 0
715 1 7 0.157043478261 -0.975855346250998 1.6574888877068772 -11.744605173054621 0 0 0
716 1 7 0.157043478261 -4.345168044734579 3.5339561828585597 -14.64238110810711 0 0 0
717 1 7 0.157043478261 -0.8150154009845844 5.149273547987782 -15.747792580169007 0 0 0
718 1 7 0.157043478261 -4.242548438594519 5.342385168666679 -12.767391934983781 0 0 0
719 1 7 0.157043478261 -1.3691035006502834 5.4126388478667655 -14.091916940796919 0 0 0
720 1 7 0.157043478261 -4.61558948965021 1.8438044692009279 -14.465635710374356 0 0 0
721 1 7 0.157043478261 -0.986563586624991 2.9806802518219815 -10.751779405364731 0 0 0
722 1 7 0.157043478261 -5.099862913459537 6.648923918847739 -11.988949255676983 0 0 0
763 1 7 0.157043478261 -1.4217869971558326 3.2406919239037095 -12.53625723471342 0 0 0
764 1 7 0.157043478261 -4.980400407200179 2.619977562954139 -16.003005352901738 0 0 0
765 1 7 0.157043478261 -0.6345757425973072 6.713701124814362 -15.008716007689092 0 0 0
766 1 7 0.157043478261 -4.761651306563527 5.173100338618946 -11.165398380373404 0 0 0
787 1 8 -0.300956521739 -3.4029106828761715 7.275351401387871 -14.916220128328414 0 0 0
788 1 8 -0.300956521739 -2.3575291332046477 7.333452219180044 -11.916929516545407 0 0 0
789 1 8 -0.300956521739 -3.4377063767597997 1.2790106983292808 -11.997148559799726 0 0 0
790 1 8 -0.300956521739 -2.2247067433899415 1.2241665614744413 -14.930857530651114 0 0 0
791 1 8 -0.300956521739 -3.602913850969851 2.807129425624629 -10.41203066390743 0 0 0
792 1 8 -0.300956521739 -2.3719546624884646 5.738081065668491 -10.327441259593622 0 0 0
793 1 8 -0.300956521739 -3.406182911882893 5.718703162548199 -16.471165426385852 0 0 0