LAMMPS data file via write_data, version 24 Dec 2020, timestep = 605000

2688 atoms
8 atom types
2784 bonds
7 bond types
5120 angles
13 angle types
8128 dihedrals
19 dihedral types

7.215836656158528 32.78416334383989 xlo xhi
5.856327408979183 34.14367259101691 ylo yhi
11.264865944737561 48.735134055259095 zlo zhi

Masses

1 12
2 1.00794
3 1.00794
4 1.00794
5 15.9994
6 15.9994
7 15.9994
8 1.00794

Pair Coeffs # lj/cut/tip4p/long

1 0.086 3.816
2 0.0157 2.774
3 1.287 2.574
4 0.03 0.4
5 0.2104 3.442
6 0.17 3.3674
7 0.1852 3.1589
8 0 0

Bond Coeffs # harmonic

1 310 1.52
2 340 1.09
3 340 1.09
4 320 1.43
5 320 1.41
6 553 0.96
7 0 0.9572

Angle Coeffs # harmonic

1 45 113.5
2 45 111
3 45 111
4 70 107.5
5 70 108.5
6 55 109.5
7 50 111.6
8 45 109.5
9 60 110
10 60 110
11 60 110
12 100 112
13 0 104.52

Dihedral Coeffs # harmonic

1 0.45 1 180
2 0.15 1 180
3 0.15 1 180
4 0.1 1 180
5 -0.27 1 180
6 0.18 1 180
7 0.16 1 180
8 0.17 1 180
9 0.17 1 180
10 0.05 1 180
11 0.05 1 180
12 0.18 1 180
13 0.27 1 180
14 0.05 1 180
15 0.6 -1 180
16 -0.1 -1 180
17 -1.1 -1 180
18 0.4 1 180
19 0.96 -1 180

Atoms # full

3 1 1 0.11 11.937400735209048 11.612204580732634 15.219457623042839 0 0 0
14 1 1 0.09 13.29091599350051 11.936842238036656 15.864167396158518 0 0 0
5 1 6 -0.4 10.964539459557253 11.176308970124186 16.183106360581412 0 0 0
18 1 2 0.09 12.014644778406783 10.813823184616494 13.29243041831613 0 0 0
17 1 1 0.05 12.237872972225201 10.498879725665864 14.2985834479536 0 0 0
15 1 2 0.09 13.682660478248645 11.132091793062202 16.421000892559896 0 0 0
19 1 2 0.09 13.192906695115841 10.084793110191715 14.419303024102502 0 0 0
21 1 4 0.42 10.738203949170352 9.912903642631909 15.35874912554782 0 0 0
20 1 5 -0.65 11.27015039018622 9.511483383645427 14.697133161715481 0 0 0
141 7 2 0.09 13.786907333359949 9.720369898192729 19.40106799859973 0 0 0
1113 53 4 0.42 8.717763537495914 12.034309412621848 12.471649731364707 0 1 0
1115 54 3 0.09 9.340561433999568 7.468171419047432 13.534911657463672 0 1 0
140 7 1 0.09 14.416653268710451 9.404780655835642 20.247150435910555 0 0 0
1152 55 2 0.09 12.591624938144047 7.030919260336671 16.291979458595414 0 1 0
125 6 5 -0.65 14.778444181583243 8.434086352425293 16.290182886152795 0 0 0
7 1 2 0.09 12.21692625664667 11.548162801826724 18.402448080492405 0 0 0
1153 55 2 0.09 10.838680756559082 6.988197863335863 15.723479657597437 0 1 0
37 2 6 -0.36 9.78366104502652 11.621188745870047 18.112076641103222 0 0 0
4 1 2 0.09 11.56297182868867 12.425192138212724 14.572553384786907 0 0 0
126 6 4 0.42 14.973189948673971 8.486704122538086 17.2245031809424 0 0 0
138 7 5 -0.65 14.675357150589525 7.032893768766898 19.178312594522307 0 0 0
1114 54 1 0.29 9.62728613570216 6.891474079380764 12.639554749342015 0 1 0
136 7 1 0.14 14.498531450961602 7.839007936531034 20.311738585990923 0 0 0
133 7 2 0.09 12.433502776746218 7.939905952448841 20.16533085576013 0 0 0
16 1 6 -0.36 14.16206177650699 12.554766985878771 14.937500100969805 0 0 0
6 1 1 0.14 11.939249945457943 12.399316619852636 17.880644932190535 0 0 0
25 2 2 0.09 8.281656346810696 10.746130217386865 19.961666097309475 0 0 0
24 2 1 0.11 8.282168281926005 11.783887084009908 19.902315405049993 0 0 0
1 1 1 0.29 10.628818405393105 12.177017367151127 17.143851638929423 0 0 0
35 2 1 0.09 8.59536950526256 12.34621022017713 18.476739497625246 0 0 0
1118 54 6 -0.4 8.543294432512003 6.210995216464823 12.157954444099252 0 1 0
123 6 2 0.09 15.34802755200254 9.74138738190534 14.863496042455974 0 0 0
1124 54 2 0.09 9.294465847101456 9.44619809487352 12.319675606581132 0 1 0
1112 53 5 -0.65 8.926644192326046 12.879488278210477 12.947462604968798 0 1 0
1122 54 4 0.42 11.581253654261479 8.07056465553811 12.491783403066222 0 1 0
139 7 4 0.42 14.010475645356909 6.278739060332478 19.26597039704132 0 0 0
1047 50 2 0.09 7.707946575496805 7.148321178551995 15.79234800462429 0 1 0
1049 50 5 -0.65 7.502884939513816 6.535318491075415 17.76668436307608 0 1 0
13 1 4 0.42 14.744260182565128 13.13005916197445 17.142040273223387 0 0 0
10 1 1 0.14 12.952824938227007 12.94879554805234 16.940273843616616 0 0 0
12 1 5 -0.65 14.027604041253195 13.322743970985357 17.764673868121363 0 0 0
1109 53 1 0.05 7.822263921982211 13.777279116072144 12.748882544370613 0 1 0
2 1 3 0.09 10.274310441888032 13.102063439154879 16.737524231839075 0 0 0
11 1 2 0.09 12.583389617504707 13.8735883443588 16.555183464235405 0 0 0
8 1 5 -0.65 11.870668906165024 13.481907853695805 18.719526323935348 0 0 0
36 2 2 0.09 8.765613249257212 13.445199058084146 18.53983029803919 0 0 0
9 1 4 0.42 12.845033501485165 13.623104169908725 18.814663511307046 0 0 0
375 18 2 0.09 9.670742377890166 17.084729894607868 13.59819247571847 0 0 0
361 18 2 0.09 11.625538903892709 17.780491825720162 13.826153962035484 0 0 0
360 18 1 0.11 11.679821080668503 16.820140949906822 14.206214166180114 0 0 0
371 18 1 0.09 12.575894645070179 15.87092613010075 13.366294340894168 0 0 0
372 18 2 0.09 12.49140749783071 14.858244246509196 13.73101980583833 0 0 0
373 18 6 -0.36 12.323681157025103 16.14500455267637 12.005152668138765 0 0 0
374 18 1 0.05 10.251813536427441 16.45462464357074 14.316146145213871 0 0 0
376 18 2 0.09 10.155107930012282 15.355301206727777 14.079403982284964 0 0 0
377 18 5 -0.65 9.90851691004537 16.75853822226948 15.643967604371095 0 0 0
378 18 4 0.42 10.582133623574721 16.524162661843565 16.27284027246106 0 0 0
362 18 6 -0.4 12.07202489248105 16.90150811723495 15.584058686013236 0 0 0
394 19 6 -0.36 13.775132191965096 17.073767048320953 17.2163213627094 0 0 0
358 18 1 0.29 13.392968578846823 17.281503944797777 15.843443632342538 0 0 0
364 18 2 0.09 14.042753406362866 15.260243054854064 15.541542280685249 0 0 0
359 18 3 0.09 13.612116244752633 18.24774035411646 15.403930254264727 0 0 0
392 19 1 0.09 13.488496892105797 18.074350621640303 18.202228254836893 0 0 0
390 19 5 -0.65 11.456289161525307 16.836400333577025 18.98582554985768 0 0 0
363 18 1 0.14 14.228234193824122 16.25456165824707 15.105670636143708 0 0 0
388 19 1 0.14 12.673963774619146 17.487186696063766 19.36714970391221 0 0 0
393 19 2 0.09 12.943089061751289 18.827910544255403 17.70099325633544 0 0 0
367 18 1 0.14 13.988575931547505 16.275143535252433 13.608246568060208 0 0 0
381 19 1 0.11 14.771458578378567 18.52514681060395 18.82797753473499 0 0 0
368 18 2 0.09 14.21893005995183 17.216264091034958 13.087265271603007 0 0 0
670 32 2 0.09 8.955603429735104 17.447453586957558 19.236248489891448 1 0 0
1110 53 2 0.09 8.096077357264765 14.559789997357251 12.068867189143159 0 1 0
389 19 2 0.09 13.362227025237019 16.693443514728816 19.828414592575122 0 0 0
391 19 4 0.42 11.589387910240097 15.841944855758623 19.09239803040002 0 0 0
369 18 5 -0.65 15.085866341667565 15.560484131004145 13.151332404823153 0 0 0
385 19 2 0.09 11.622660322499467 19.376340619800743 19.790209515021893 0 0 0
382 19 2 0.09 15.336534901803923 17.73953058195174 19.370183722455646 0 0 0
632 31 3 0.09 10.28455186113294 19.36266583169169 17.522607281316454 1 0 0
338 17 3 0.09 10.63856693735749 15.125054264738747 11.669526176366189 0 0 0
383 19 6 -0.4 14.43850307433269 19.554014153688637 19.802786179215516 0 0 0
668 32 1 0.05 7.886872808073791 17.168061583072237 19.173544001329713 1 0 0
365 18 5 -0.65 15.61985797734225 16.53762327355154 15.043724775911771 0 0 0
1101 53 4 0.42 30.35795533890778 9.248971612234673 11.501292912901764 -1 1 0
384 19 1 0.14 12.166097295069527 18.579459375752826 20.257138100023734 0 0 0
536 26 2 0.09 27.6520822491659 16.72823681060482 11.440634855482891 0 0 0
158 8 2 0.09 10.071155355184437 5.92513288681426 23.811562200642737 0 0 0
669 32 2 0.09 7.838702064555356 16.195899456596457 18.623761417732837 1 0 0
1151 55 1 0.05 11.634720651071166 6.442290221773416 16.11588167865081 0 1 0
1121 54 5 -0.65 11.366602754225596 8.146959846929393 11.560030344352446 0 1 0
31 2 1 0.14 7.505670620778141 11.87275657824265 17.639989117209435 0 0 0
1119 54 1 0.14 10.088642207563879 7.632515380937859 11.422321279402002 0 1 0
1116 54 1 0.11 7.376508319579138 7.021207790880451 11.903918472623879 0 1 0
33 2 5 -0.65 7.494146162138902 12.260760548937483 16.277544100654673 0 0 0
32 2 2 0.09 7.357142978931918 10.80536542246189 17.748066002931377 0 0 0
1123 54 1 0.14 9.172372372932921 8.803068447807142 11.417348189510156 0 1 0
1150 55 6 -0.36 10.758595120461695 6.0465667012135835 13.029899152086813 0 1 0
370 18 4 0.42 15.598080152937706 15.215462549275196 14.001208873133777 0 0 0
639 31 4 0.42 9.367479190264927 19.06021126969528 15.574926680748966 1 0 0
665 32 1 0.09 7.571110058906448 19.76810909396138 18.50383250145521 1 0 0
775 37 2 0.09 16.59192604016097 17.240720189015004 11.450293072069643 0 0 0
397 19 2 0.09 15.111682412780022 19.522917889257883 16.990437835311724 0 0 0
2165 104 3 0.09 11.297739392200388 19.66393361896388 12.150528267700587 0 0 1
1615 77 2 0.09 24.924797618480994 8.003058946679417 29.83283859833341 0 0 0
671 32 5 -0.65 32.7714554818045 16.942093344398053 20.479446916834902 0 0 0
134 7 5 -0.65 13.048051118808974 6.093665665449956 20.576721539491245 0 0 0
387 19 4 0.42 11.037436676363098 17.063374807482464 20.66089028561408 0 0 0
40 2 2 0.09 10.102160405061806 12.937275169264167 20.526702477931448 0 0 0
357 17 4 0.42 13.447133463506022 12.825443753750193 11.545431607974402 0 0 0
122 6 1 0.05 15.825287517163739 9.116234169145457 15.606028220216594 0 0 0
366 18 4 0.42 15.692977900342575 16.878552264161293 14.148011239797844 0 0 0
395 19 1 0.05 15.677848942805825 19.33889816771796 17.91902910787507 0 0 0
142 7 6 -0.36 15.71288760027808 9.929416904278568 20.164485598931513 0 0 0
110 6 6 -0.4 15.855215944715813 9.74455935938818 17.851863350552062 0 0 0
107 6 3 0.09 16.153041887148717 11.427670666442605 18.87746858686799 0 0 0
773 37 1 0.05 17.62046629515351 17.521599214084013 11.709081690973218 0 0 0
124 6 2 0.09 16.44211569061934 8.337948966870394 15.10656136921202 0 0 0
109 6 2 0.09 16.747271121669925 10.894099966540946 16.348875949829885 0 0 0
106 6 1 0.29 16.32783663097851 10.376587414907572 18.953460074446845 0 0 0
108 6 1 0.11 16.633375264898362 9.86111267952787 16.63704317110003 0 0 0
95 5 2 0.09 19.089111436904766 6.8342309831426435 12.91315204949578 0 0 0
86 5 3 0.09 18.93000820693804 7.445799545413406 15.14985687779447 0 0 0
92 5 5 -0.65 18.043087757228335 9.17062873868693 13.222530891571894 0 0 0
85 5 1 0.29 19.482325752982504 8.429645414815973 14.982690723153258 0 0 0
90 5 1 0.14 19.32286197022947 8.915526029910064 13.612295272470927 0 0 0
91 5 2 0.09 19.952872633028804 9.747806710106245 13.32910562400471 0 0 0
89 5 6 -0.4 20.876117872891015 8.28934237613333 15.212393750478203 0 0 0
94 5 1 0.14 19.64187820493397 7.7729357064575115 12.673879105238045 0 0 0
121 6 6 -0.36 18.962635370763685 9.4803778512686 15.819453326229588 0 0 0
120 6 2 0.09 17.993956575223677 8.235372363786055 17.279011411781553 0 0 0
119 6 1 0.09 18.026488902131963 9.252355278143016 16.883398007363873 0 0 0
115 6 1 0.14 18.544642368889377 10.232679139138169 17.899802090151894 0 0 0
105 5 4 0.42 22.029383526150326 7.897049384085324 16.35957938321559 0 0 0
117 6 5 -0.65 19.86560207321139 9.84269932986141 18.254135276281517 0 0 0
87 5 1 0.11 21.359393962678872 7.231171944575136 14.287024266205885 0 0 0
98 5 1 0.09 21.063409145235255 7.418974623103196 12.782915049212944 0 0 0
99 5 2 0.09 21.66083716045301 8.207194750190975 12.344085291388422 0 0 0
101 5 1 0.05 22.816735065067135 7.158442217319866 14.733076923042804 0 0 0
104 5 5 -0.65 22.870928768157263 7.974443648536933 15.909220764024473 0 0 0
118 6 4 0.42 20.1769984803897 9.656016286191587 17.3774430516892 0 0 0
111 6 1 0.14 17.81176961827712 9.995265028396146 19.1187982418993 0 0 0
112 6 2 0.09 17.939019358531397 9.013525286907349 19.459534806082775 0 0 0
116 6 2 0.09 18.519188399501473 11.297248755946944 17.668282991900057 0 0 0
113 6 5 -0.65 18.526380966884822 10.864074091360395 19.97663903250706 0 0 0
114 6 4 0.42 19.40908998723154 10.556596229334318 19.735397325456955 0 0 0
554 27 5 -0.65 22.41663912950942 11.276830679331042 14.825350659609851 0 0 0
103 5 2 0.09 23.49637569497674 7.615808816180374 14.07661729682275 0 0 0
578 28 2 0.09 22.02476076968258 10.89392426179301 19.39899315509777 0 0 0
1208 58 2 0.09 19.071946679912102 6.905181321863122 19.063474866851294 0 1 0
1205 58 5 -0.65 21.433500089721896 6.690473723017369 19.77547738651767 0 1 0
559 27 4 0.42 22.136213603492294 12.33207049907924 13.614250916878678 0 0 0
552 27 1 0.14 23.430259792628917 12.100837659220986 15.339948905055408 0 0 0
583 28 6 -0.36 23.62789085416714 11.047418215860603 17.390894537879213 0 0 0
581 28 1 0.09 23.88301074390261 11.525691657555225 18.746678699338915 0 0 0
577 28 1 0.14 22.52435578169746 11.850978416845141 19.26662995574756 0 0 0
764 37 5 -0.65 19.31141087478681 12.686071641030356 13.565810612969022 0 0 0
555 27 4 0.42 22.744609652151233 10.41075831812961 14.861669986363708 0 0 0
765 37 4 0.42 19.29162305959165 12.095438072682047 12.842302084495529 0 0 0
580 28 4 0.42 22.003249048356647 12.492480128807868 17.513121061270326 0 0 0
558 27 5 -0.65 22.91657498581904 12.698607355853909 13.219129050336013 0 0 0
93 5 4 0.42 18.156107247869514 9.10855964819768 12.279988989547006 0 0 0
579 28 5 -0.65 21.809305787081136 12.791526705902381 18.391509654939355 0 0 0
102 5 2 0.09 23.038093043077836 6.119841591901238 14.963627236568158 0 0 0
1210 58 4 0.42 21.1391789218111 6.39485434684793 18.043360434839656 0 1 0
88 5 2 0.09 20.888876695631975 6.294739751854047 14.511243589090274 0 0 0
576 28 4 0.42 20.95744318295377 13.198622981509086 19.79055780035231 0 0 0
553 27 2 0.09 23.00959352258971 13.028325819171512 15.785901630334266 0 0 0
763 37 2 0.09 17.817140675545204 13.970405285888729 13.425142808324825 0 0 0
786 38 4 0.42 17.5735051507013 13.78702600981368 18.071830243306916 0 0 0
762 37 1 0.14 18.849986296414507 13.910692104462 13.087479526057162 0 0 0
790 38 4 0.42 17.912750921069538 13.52577005857849 15.645318523996178 0 0 0
796 38 2 0.09 20.056545465791462 17.890264729987145 14.867376618313592 0 0 0
794 38 1 0.05 20.18442241514029 17.898054970485916 15.885811186772559 0 0 0
780 38 1 0.11 20.10038466017639 16.664227244523524 16.692157224931325 0 0 0
758 37 3 0.09 20.53162814498004 15.220599599942592 13.316651432215135 0 0 0
757 37 1 0.29 19.572500769682854 15.088785399958331 13.686091723189461 0 0 0
793 38 6 -0.36 19.75290735184595 14.937350174787749 15.040871032588505 0 0 0
792 38 2 0.09 18.197659516381563 16.233956562291414 15.652304281381301 0 0 0
791 38 1 0.09 19.099184343043575 15.7179040069574 16.00399292003823 0 0 0
789 38 5 -0.65 17.689197158910964 13.713912767194362 16.599310658159556 0 0 0
787 38 1 0.14 18.687153927974357 14.734130927408792 17.000552083277412 0 0 0
788 38 2 0.09 19.609327473877265 14.201402870494865 17.20609693270554 0 0 0
781 38 2 0.09 21.074971721131284 16.207688460373138 16.703877363637222 0 0 0
761 37 6 -0.4 18.834597066100354 16.151864109980515 13.243709348991786 0 0 0
777 37 4 0.42 18.40240153224559 17.664170024751588 13.46118989293291 0 0 0
776 37 5 -0.65 17.63598184342281 18.00434117515075 13.047305197377582 0 0 0
798 38 4 0.42 19.379223797582476 18.874498334033937 17.400361252250978 0 0 0
797 38 5 -0.65 19.193044662960354 18.75010297032904 16.480880959523844 0 0 0
782 38 6 -0.4 19.653666649478062 17.1609788994965 17.988152867349026 0 0 0
784 38 2 0.09 17.201987134554958 16.16727155678945 17.726024902098345 0 0 0
795 38 2 0.09 21.179556410992166 18.330284040446763 16.07366590724515 0 0 0
783 38 1 0.14 18.016618209813288 15.49733238753632 18.095206410101163 0 0 0
785 38 5 -0.65 17.482396948404144 14.4267979060537 18.788371268419365 0 0 0
778 38 1 0.29 19.090350002843927 16.199255835744232 18.869107890875043 0 0 0
779 38 3 0.09 19.851126184078446 15.5878252775612 19.267245996534278 0 0 0
814 39 6 -0.36 18.30649622338773 16.858545943078557 19.833554759527544 0 0 0
396 19 2 0.09 16.653533077967012 18.913713291631147 17.72606663991057 0 0 0
766 37 1 0.14 18.958756393917163 13.870449733028016 11.6242058015949 0 0 0
543 26 2 0.09 22.529331130498214 17.35476573926718 12.470687436488063 0 0 0
759 37 1 0.11 18.567850531209896 16.31922665655583 11.791444557970566 0 0 0
546 26 4 0.42 23.33214900277953 15.161797489146268 11.780847981200525 0 0 0
685 33 4 0.42 23.789524136772982 18.02159895593668 19.52982678011805 0 0 0
100 5 6 -0.36 21.267172027252187 6.26300539413092 12.079281087991964 0 0 0
1209 58 5 -0.65 20.366014328863095 6.050325511515151 17.664143581490386 0 1 0
684 33 5 -0.65 23.269041656777816 18.5644036597714 20.165947981251186 0 0 0
574 28 2 0.09 23.239887743147044 13.280183203778602 20.691927896207524 0 0 0
1201 58 2 0.09 17.382168762426552 6.161698261070947 20.023473010013042 0 1 0
882 42 4 0.42 23.901616921153334 18.42469564680355 16.828305020372813 0 0 0
542 26 1 0.05 23.185802739718582 17.079486920944294 11.679731664677126 0 0 0
556 27 1 0.14 24.095171642322043 12.366104918249011 14.03173358515252 0 0 0
271 13 2 0.09 24.222487124388756 6.752641688715569 18.526895171745913 0 0 0
1206 58 4 0.42 21.992690083131116 6.709119134348373 20.560461951181395 0 1 0
881 42 5 -0.65 24.248995515152686 17.54358824328164 16.72341875446798 0 0 0
1997 96 3 0.09 23.99195604559148 9.873946020657055 11.660745858628507 0 0 1
810 39 5 -0.65 18.595725497207667 19.752502060196477 20.583108038022978 0 0 0
1207 58 1 0.14 19.557897210714167 5.942728061249967 18.80706015606061 0 1 0
212 11 3 0.09 23.6928934103221 5.886252286629059 28.7078435387182 0 0 0
571 28 2 0.09 24.26612776272175 9.502136589599289 19.57202759839447 0 0 0
96 5 5 -0.65 19.307684597566137 8.213818409783022 11.364695646100975 0 0 0
813 39 2 0.09 19.955128179480496 17.859354152380973 20.42871825451345 0 0 0
606 29 2 0.09 19.820156103584303 19.747950685379934 11.796581697292739 1 0 0
1111 53 2 0.09 7.496590356666612 14.254403956669796 13.668583010273682 0 1 0
26 2 6 -0.4 32.56627880280835 12.360383479606861 20.361486819354326 -1 0 0
1097 53 6 -0.4 7.264649773357059 11.610018351893721 12.191287773896606 0 1 0
582 28 2 0.09 24.382145554583545 12.49966724558898 18.760788197941196 0 0 0
547 27 1 0.29 24.392331458543836 11.33754833194094 16.21082316227315 0 0 0
853 41 4 0.42 32.03448166408157 16.02248576106507 14.79998063277727 0 0 0
844 41 2 0.09 31.399211668231693 19.722247621234363 12.89430513276008 0 0 0
570 28 1 0.11 24.488001906067353 10.56645539160219 19.748587618733083 0 0 0
1046 50 1 0.05 32.536945077965676 6.699125660978163 16.48921735808367 -1 1 0
1129 54 6 -0.36 32.43437936780894 9.209630068617301 12.020637412962502 -1 1 0
866 42 6 -0.4 24.529956105508383 19.76368576765895 16.546264121900812 0 0 0
557 27 2 0.09 24.57483728547402 11.502593908481018 13.562340310460153 0 0 0
1117 54 2 0.09 32.59262994318076 7.362964051228935 12.896030939651219 -1 1 0
1100 53 5 -0.65 29.819532410004243 9.770242195838806 12.126529469407098 -1 1 0
1105 53 4 0.42 28.6468038825455 10.968376431353494 12.26052083064762 -1 1 0
1104 53 5 -0.65 28.843727645671848 11.725234944756334 12.774032263077752 -1 1 0
270 13 2 0.09 25.67464844803719 7.732048416398504 18.177776410978108 0 0 0
1099 53 2 0.09 31.065309622027932 10.769600366762933 13.626581355078828 -1 1 0
548 27 3 0.09 24.79313530000759 10.454044480017828 15.774163273025971 0 0 0
1048 50 2 0.09 31.652356904037482 7.300770712047003 16.551888230783646 -1 1 0
269 13 1 0.05 25.289028215930237 6.816506767387009 18.568190484148335 0 0 0
584 28 1 0.05 25.941085621700857 10.768569011036298 19.664838679318024 0 0 0
1010 49 3 0.09 30.126479501379357 7.2376108751031145 13.81152375618382 -1 1 0
1029 49 4 0.42 28.970814127299697 7.787513344018693 17.160478688022543 -1 1 0
1028 49 5 -0.65 28.600223921864668 8.608799533083364 17.48902488615667 -1 1 0
1013 49 6 -0.4 29.002825327340034 7.389657393481936 15.598103206325245 -1 1 0
1025 49 1 0.05 27.873917583378486 9.24308339810308 16.42612313367681 -1 1 0
1026 49 2 0.09 28.255108895145625 10.210080672690724 16.28729643440614 -1 1 0
1012 49 2 0.09 28.616839129233433 9.189015466104387 14.519351064109983 -1 1 0
1011 49 1 0.11 28.16392750757585 8.445081908293288 15.19425112352352 -1 1 0
1009 49 1 0.29 29.477928093894327 6.619252337777692 14.435382945252684 -1 1 0
1027 49 2 0.09 26.833451733131163 9.351577854457592 16.738383632592353 -1 1 0
1022 49 1 0.09 26.907923471005347 7.941744244913682 14.358315037705488 -1 1 0
1023 49 2 0.09 26.228625716995282 7.341106808287747 15.010820468970703 -1 1 0
1024 49 6 -0.36 26.22350749331129 9.082037870802338 13.803272717544559 -1 1 0
1018 49 1 0.14 27.39181782834428 7.136464071702175 13.16889358723881 -1 1 0
1019 49 2 0.09 27.91196467588682 7.771177123940751 12.422920093210028 -1 1 0
550 27 2 0.09 26.717635389410823 12.018681886573619 14.794880747146102 0 0 0
586 28 2 0.09 26.291736691304003 11.074536634712263 18.776946699648548 0 0 0
585 28 2 0.09 26.423028901676837 9.83551636014349 19.898916662871493 0 0 0
1098 53 1 0.14 30.7896485597064 10.725407667624062 12.494715666819074 -1 1 0
1102 53 1 0.14 30.083760745822126 11.967809436527311 12.22737020053283 -1 1 0
1020 49 5 -0.65 26.415564552147444 6.37247855443527 12.530241673291282 -1 1 0
272 13 5 -0.65 25.60887048551504 7.043135515046474 19.93344046297289 0 0 0
23 2 3 0.09 31.170157767849027 11.027891671622935 19.4758861186984 -1 0 0
22 2 1 0.29 31.438384031303144 12.087638849343332 19.56140062871023 -1 0 0
1107 53 2 0.09 30.997638602769207 13.030012992479483 13.858699856434123 -1 1 0
551 27 6 -0.4 25.50278081445265 12.22246003585272 16.39385808642912 0 0 0
549 27 1 0.11 26.153563028596672 12.772318172791199 15.260949659583689 0 0 0
1093 53 1 0.29 32.05908143031948 10.533898117722785 11.660267857441973 -1 1 0
273 13 4 0.42 26.537135073268573 6.847906816448182 20.17884439355511 0 0 0
1106 53 1 0.09 30.964588144276306 13.079815242253705 12.819432183474596 -1 1 0
58 3 6 -0.36 30.255632980489203 12.669745014420045 20.065345900456386 -1 0 0
29 2 5 -0.65 30.806564671947804 12.373320642012331 17.196061640952703 -1 0 0
1095 53 1 0.11 32.29132404904896 12.930252368906483 12.084524710197803 -1 1 0
27 2 1 0.14 31.832353071541334 12.549918927958219 18.15905756813723 -1 0 0
34 2 4 0.42 32.069267142276075 12.312307613372035 16.05372561519814 -1 0 0
30 2 4 0.42 29.991810933675517 12.748076389921364 17.59193962481018 -1 0 0
564 27 2 0.09 28.07437568772186 13.200458747975176 15.899763193869857 0 0 0
529 26 2 0.09 24.82538283224472 17.685929951631007 12.865604658805962 0 0 0
528 26 1 0.11 24.66111761406131 16.95585549169826 12.077021539800569 0 0 0
879 42 2 0.09 25.511690310010998 16.963978802039883 15.224415819240285 0 0 0
530 26 6 -0.4 24.640624135555576 15.650961708565283 12.548864727911486 0 0 0
567 27 4 0.42 26.30730995101048 12.998147676071364 17.55706896436658 0 0 0
856 41 6 -0.36 32.634406451661725 17.630817497925527 13.289690110659148 0 0 0
652 32 1 0.29 30.32657881605305 19.079092912768814 19.167245892828088 0 0 0
560 27 1 0.09 25.179168387652666 13.329954505181458 14.293953945768548 0 0 0
566 27 5 -0.65 26.765184845201425 13.800917787078085 17.35339577557096 0 0 0
654 32 1 0.11 32.581437978095 18.28097521313299 18.567578321404802 0 0 0
563 27 1 0.05 27.135729961404408 13.65114191763035 15.993385960450967 0 0 0
53 3 2 0.09 28.500315509011855 13.924834663493469 19.345906891965967 -1 0 0
1108 53 6 -0.36 30.27035616931451 14.215372933281868 12.403616915465381 -1 1 0
561 27 2 0.09 24.731252495790116 14.223567203491678 14.723581460624423 0 0 0
28 2 2 0.09 31.932707340119663 13.598879212095264 18.289789732562664 -1 0 0
562 27 6 -0.36 25.857489425943726 13.672393542498533 13.078404275451097 0 0 0
55 3 4 0.42 29.04446434783415 15.777464250006796 18.16570931236927 -1 0 0
851 41 2 0.09 31.516871255792616 18.385051237966888 15.163425266284715 0 0 0
852 41 5 -0.65 31.32231983518193 16.310659326149192 15.343873543664934 0 0 0
854 41 1 0.09 31.18987318677543 17.588162975537657 13.305447524286645 0 0 0
843 41 1 0.11 30.638093766560907 18.947090107944717 12.711312241217954 0 0 0
880 42 2 0.09 26.35172633825082 17.463336791851077 16.679901322454274 0 0 0
565 27 2 0.09 27.207891752926002 14.691070900712626 15.66931500171946 0 0 0
878 42 1 0.05 25.49809630808602 17.65881725068865 16.032187391607028 0 0 0
527 26 3 0.09 26.528275251755616 15.577836017422294 13.299283298540153 0 0 0
850 41 1 0.14 30.928091183592855 17.544559813089933 14.754588175525914 0 0 0
849 41 4 0.42 30.042046168429366 16.744403259532234 16.48242716640529 0 0 0
848 41 5 -0.65 29.477521665096994 17.481482773610217 16.348373785329443 0 0 0
846 41 1 0.14 29.451946084504918 17.671119560040236 14.943590508391896 0 0 0
847 41 2 0.09 28.814979757030066 16.917572185914537 14.437853398121721 0 0 0
841 41 1 0.29 29.009393233816084 19.090400486000764 14.489554022939181 0 0 0
877 42 6 -0.36 27.57096266542826 19.113912741136673 14.546017562577504 0 0 0
865 42 2 0.09 25.121752040864976 19.132842806118358 14.643481433698968 0 0 0
875 42 1 0.09 26.88694293764169 19.67124641013629 15.6996574132815 0 0 0
864 42 1 0.11 25.492598610282172 19.100062610309962 15.688981841153447 0 0 0
656 32 6 -0.4 31.34777301492504 18.182606983774654 19.326654808751144 0 0 0
845 41 6 -0.4 29.356354418835906 19.372644307804485 13.15163595644658 0 0 0
526 26 1 0.29 25.86890432246649 15.048227153873428 12.680374430661812 0 0 0
54 3 5 -0.65 29.641444020736657 15.050092038054942 18.303454019336087 -1 0 0
855 41 2 0.09 30.82088763837558 16.64194892970403 12.80294477287088 0 0 0
876 42 2 0.09 27.385464032291203 19.37601242705625 16.682208018380596 0 0 0
52 3 1 0.14 29.24493363216603 14.607761690375833 19.60179826869998 -1 0 0
655 32 2 0.09 32.403878319311 17.940391227646636 17.571949590739013 0 0 0
50 3 5 -0.65 27.89277818775038 16.48637822476098 19.31678539973089 -1 0 0
688 33 6 -0.36 26.039680726969507 18.984321780006116 19.69760773463386 0 0 0
653 32 3 0.09 29.559161923838076 19.010970667812508 19.87502044616052 0 0 0
842 41 3 0.09 29.565795013615492 19.87325226538216 15.049349196086986 0 0 0
534 26 4 0.42 27.51099524749751 13.597983844010162 11.908092400272121 0 0 0
51 3 4 0.42 26.988369307874585 16.317329058728255 19.58440385830808 -1 0 0
2004 96 4 0.42 26.491883322484064 9.406476235809086 11.64104632176755 0 0 1
2215 106 1 0.14 26.193002052171856 17.680113082824846 29.890611683040877 0 0 0
861 41 4 0.42 28.827721322513653 19.505715373133174 11.411506016642019 0 0 0
672 32 4 0.42 31.828284117197576 17.130838245553214 20.352077515421442 0 0 0
57 3 2 0.09 31.244920888014207 14.435357630283782 20.30779064413831 -1 0 0
48 3 1 0.14 28.66195183701958 15.830263114530254 20.260947375087916 -1 0 0
1014 49 1 0.14 28.270484108430082 6.069303434693913 13.789312376317746 -1 1 0
1470 70 4 0.42 8.069936855599558 9.95840095339325 29.775835098904324 0 0 0
531 26 1 0.14 26.265305207858965 15.04339177498311 11.282741085805116 0 0 0
145 7 2 0.09 12.38983641960612 11.157179962604454 20.522440854154254 0 0 0
1782 85 2 0.09 14.587193149167657 19.291377009521547 28.498046577263892 0 0 0
132 7 1 0.14 13.19944043363866 7.448818285098886 20.757002341246036 0 0 0
149 8 3 0.09 9.631206361181725 5.920541938201603 26.205661681465052 0 0 0
144 7 2 0.09 13.778124530364524 12.158800452060792 20.978357206190005 0 0 0
2364 113 5 -0.65 8.53627938219328 6.214730334204247 29.37923046018498 0 1 0
137 7 2 0.09 15.267129021196117 7.531312012784686 21.038320250568397 0 0 0
38 2 1 0.05 9.275111842714733 12.35120573458427 20.896266770859548 0 0 0
498 24 2 0.09 7.903210672466877 19.677270841015996 25.409010854693395 0 0 0
2371 113 2 0.09 13.22815774788953 7.082000096411222 29.825481999199344 0 1 0
143 7 1 0.05 13.134458131088984 11.271405305750207 21.326828816707597 0 0 0
160 8 4 0.42 9.856393845292338 7.279977414231336 21.877940253437796 0 0 0
129 7 1 0.11 13.934121490526003 10.031253926339296 21.50685713621042 0 0 0
165 8 2 0.09 13.905494098010745 7.853959366097394 25.7239065799986 0 0 0
159 8 5 -0.65 9.137632267759635 7.156939847209089 22.550563803241246 0 0 0
157 8 1 0.14 9.876708712514246 6.981970172966825 23.70510008834784 0 0 0
147 7 4 0.42 12.736342697149453 10.677848196372434 23.051506803646816 0 0 0
146 7 5 -0.65 12.482368691663652 11.48901945425505 22.57839913466143 0 0 0
167 8 5 -0.65 12.591712151820609 8.703959422628909 27.068286799977756 0 0 0
1486 71 6 -0.36 10.80030763659125 11.680535581605278 28.469137975576178 0 0 0
154 8 2 0.09 8.871004879851341 8.528595080739763 24.674578050025005 0 0 0
166 8 2 0.09 12.997159673186642 9.336710209852523 25.27092404144468 0 0 0
153 8 1 0.14 9.000660945593463 7.447303917535598 24.76455213518629 0 0 0
163 8 6 -0.36 11.75317159436284 7.211535737086425 22.65468631178362 0 0 0
162 8 2 0.09 10.768321872181803 8.789788505315617 23.539791702000006 0 0 0
161 8 1 0.09 11.061749495927202 7.80790993177877 23.729687635426014 0 0 0
127 7 1 0.29 12.969389407046945 7.865930240209378 22.22534393716641 0 0 0
131 7 6 -0.4 12.997922782178737 9.31363438266075 22.28038968733971 0 0 0
128 7 3 0.09 13.709895429187718 7.407288290261088 22.827442341542557 0 0 0
150 8 1 0.11 11.754156021770605 7.56595476891633 25.151510928325575 0 0 0
1456 70 2 0.09 9.71134625835826 10.276944234553437 26.51312959777192 0 0 0
164 8 1 0.05 12.93144517577361 8.372549654147704 25.74119152028703 0 0 0
1450 70 1 0.29 9.48371324276971 11.816622235064223 28.035247524207907 0 0 0
1454 70 6 -0.4 8.563870729026542 10.904664553844807 28.582297217952778 0 0 0
1455 70 1 0.14 9.58784210608911 11.38770810959727 26.576268039572895 0 0 0
152 8 6 -0.4 10.768128445914597 7.722085958973993 26.209859314101394 0 0 0
148 8 1 0.29 9.563596642751657 6.980544834363693 26.019391648166703 0 0 0
1459 70 1 0.14 8.31146916906082 11.690196916915554 25.827661977485867 0 0 0
1461 70 5 -0.65 8.771799998102157 11.333998840532562 24.563993586425337 0 0 0
1462 70 4 0.42 9.68462275355202 11.673051046556232 24.46164645407314 0 0 0
1457 70 5 -0.65 10.73352127907105 11.864630631350693 25.89552212384161 0 0 0
1458 70 4 0.42 11.55033279005989 11.78886186487621 26.360395795362066 0 0 0
168 8 4 0.42 11.66289655291326 8.665141571930755 27.26432806834769 0 0 0
1525 73 4 0.42 14.786126210912212 8.909731836119484 28.094390763933436 0 0 0