LAMMPS data file via write_data, version 15 Sep 2022, timestep = 10000

1050 atoms
7 atom types
721 bonds
6 bond types
446 angles
9 angle types
74 dihedrals
14 dihedral types

-20.61770622323748 20.61770622323748 xlo xhi
-8.115757161731125 8.115757161731125 ylo yhi
-8.115757161731125 8.115757161731125 zlo zhi

Masses

1 15.9994
2 1.008
3 12.011
4 15.9994
5 1.008
6 15.9994
7 1.008

Pair Coeffs # lj/cut/tip4p/long

1 0.185199 3.1589
2 0 0
3 0.056 3.58141
4 0.1 2.93997
5 0.035 2.38761
6 0.192 3.14487
7 0.046 0.40001

Bond Coeffs # harmonic

1 0 0.9572
2 222.35 1.53
3 308.79 1.1111
4 359.76 1.1415
5 427.715 1.142
6 544.635 0.96

Angle Coeffs # charmm

1 0 104.52 0 0
2 50 109 0 0
3 26.5 110.1 22.53 2.179
4 45 111.5 0 0
5 13.0258 109.4 0 0
6 35.5 109 5.4 1.802
7 55 108.89 0 0
8 75.7 110.1 0 0
9 95 109.7 0 0

Dihedral Coeffs # charmm

1 0.57 1 0 0
2 0.29 2 0 0
3 0.43 3 0 0
4 0.59 1 180 0
5 1.16 2 0 0
6 0.12 1 0 0
7 0.42 2 0 0
8 0.29 3 0 0
9 2.87 1 180 0
10 0.03 2 0 0
11 0.23 3 0 0
12 1.36 1 180 0
13 0.16 2 0 0
14 1.01 3 0 0

Atoms # full

759 232 2 0.527 -18.60487877385728 -2.4317806740203887 -6.234677048081726 0 0 0
342 93 2 0.527 -13.748375848288662 -2.115686206628978 -5.557523778480615 0 0 0
796 245 1 -1.054 -11.968345462898228 -1.1424674301159197 -5.148203086947301 0 0 0
797 245 2 0.527 -11.897551816394811 -1.9921320699805012 -4.71312703210563 0 0 0
798 245 2 0.527 -11.093615609237075 -0.9801019151367214 -5.501428272765368 0 0 0
634 191 1 -1.054 -17.191475839677977 -3.0836901122575924 -3.711972179985766 0 0 -1
636 191 2 0.527 -17.646370593759915 -2.494886951889568 -4.314157610126713 0 0 -1
635 191 2 0.527 -16.270676344671394 -3.022604406004196 -3.9663052784013404 0 0 -1
123 20 2 0.527 -12.02457721936725 -5.540282046360399 -4.026605008636739 0 0 0
122 20 2 0.527 -12.099703871346088 -6.8313169703282295 -4.813676804421123 0 0 0
121 20 1 -1.054 -12.408792252319264 -6.416797675499232 -4.008147238973185 0 0 0
1290 409 2 0.527 -20.19182272244146 -0.9949275231980508 -5.855935104170362 1 0 0
1368 435 2 0.527 -10.454597890558597 -3.886897495210997 -4.836247798113482 0 0 0
1366 435 1 -1.054 -11.13969622607681 -3.793188333954106 -4.174340161456464 0 0 0
269 69 2 0.527 -10.773415145115512 -3.446371321882946 -7.41350400684881 0 1 0
676 205 1 -1.054 -17.338743581044945 -5.059200024805077 -6.536888063909016 0 0 0
1434 457 2 0.527 -19.135961595013324 -5.698130484231893 -7.757261474367531 1 1 0
340 93 1 -1.054 -14.466284187077925 -2.736392845845974 -5.432635614057692 0 0 0
1475 471 2 0.527 -12.307365508696464 -6.9132089079071335 -2.112977033407202 1 1 0
1474 471 1 -1.054 -11.808082568647478 -7.074077293404859 -1.3122975693497398 1 1 0
507 148 2 0.527 -13.253467111608884 -2.457063241604554 -1.380656296338672 0 0 0
505 148 1 -1.054 -13.649847829798759 -1.8549716978463469 -2.0104272358493764 0 0 0
506 148 2 0.527 -13.862955410821554 -2.4034310382751434 -2.7654189720758016 0 0 0
677 205 2 0.527 -16.42205006098104 -5.25148012431575 -6.3394297488242835 0 0 0
757 232 1 -1.054 -18.217678691075886 -1.7473309360077023 -5.688923098365808 0 0 0
341 93 2 0.527 -14.800272393199752 -2.8977598032961343 -6.3150481161487075 0 0 0
787 242 1 -1.054 -14.787721792630258 -6.095227153320624 -5.915131227789741 0 0 -1
788 242 2 0.527 -14.127862549425359 -6.243223777109681 -5.237677413715902 0 0 -1
789 242 2 0.527 -14.329233326629202 -6.265477954886463 -6.737961587160462 0 0 -1
217 52 1 -1.054 -12.979208566646275 -4.203799278281403 -0.6619651516322964 0 1 0
219 52 2 0.527 -12.243887151446103 -4.800263424697597 -0.8026831831092212 0 1 0
1460 466 2 0.527 -15.951419516127864 -5.510244222658061 -0.015135297666633463 0 0 0
1301 413 2 0.527 -18.75357986112043 -6.174269570301181 -1.1344418053301242 1 0 0
1300 413 1 -1.054 -18.28374475402382 -5.520810384904842 -0.6162796990442505 1 0 0
1459 466 1 -1.054 -15.038675441507063 -5.790834977363351 -0.08188059540399806 0 0 0
1302 413 2 0.527 -18.942846611060986 -5.170700504368954 -0.016888344575960446 1 0 0
128 22 2 0.527 -19.371210029801595 -0.11150741106590267 -0.6358128305936113 0 1 0
365 101 2 0.527 -16.60858113793938 -3.1563942004125147 -1.247309017240867 0 1 -1
364 101 1 -1.054 -16.144674743750024 -2.9872845799108845 -0.4272852471661519 0 1 -1
1319 419 2 0.527 -19.08927743920811 -7.690510015590049 -6.773354515276023 1 0 -1
186 41 2 0.527 -11.915274229257845 -0.44848217919345945 -2.0550389635729758 0 0 0
1367 435 2 0.527 -10.664379038441464 -3.6924172203048613 -3.3496182219041835 0 0 0
1451 463 2 0.527 -18.95708147042874 -7.56531597614172 -3.1891185493273397 1 0 1
218 52 2 0.527 -13.750132475427918 -4.771131296665171 -0.6529409562859954 0 1 0
366 101 2 0.527 -15.235261446229213 -2.846282683669969 -0.690672417424536 0 1 -1
1450 463 1 -1.054 -19.67916282546551 -6.951608148220737 -3.0541006093568335 1 0 1
724 221 1 -1.054 -20.022701417247397 -2.760008115949443 -2.117840126956761 0 0 0
278 72 2 0.527 -14.420762400721316 -0.15379646705148708 -1.4193152889430998 0 -1 0
252 63 2 0.527 -20.352627911238613 -3.539074581519638 -6.977557494444422 0 0 -1
129 22 2 0.527 -20.152170858844315 -1.1834537147752036 -1.3658601655267137 0 1 0
268 69 1 -1.054 -10.86977391131416 -2.6176156098958385 -7.882665238027143 0 1 0
127 22 1 -1.054 -20.19307702084516 -0.26419699614992886 -1.102180564073806 0 1 0
1452 463 2 0.527 -20.14398913380113 -6.940098795689955 -3.8907904476732105 1 0 1
1476 471 2 0.527 -12.084920004615846 -7.945081507074732 -1.0277775655373995 1 1 0
678 205 2 0.527 -17.577470826969197 -4.368133144068189 -5.919092601395349 0 0 0
758 232 2 0.527 -17.752814358276886 -1.1824566855981962 -6.306227211702706 0 0 0
114 17 2 0.527 -11.013357438942542 -7.965946892094219 -6.783032928850805 0 1 0
914 284 2 0.527 -15.323169089875293 -7.893186616285896 -5.541668538944132 0 0 0
112 17 1 -1.054 -11.90642102683035 -7.934959634180539 -6.439867272247915 0 1 0
1318 419 1 -1.054 -18.671393442154443 -7.741092302398261 -5.913669380112248 1 0 -1
726 221 2 0.527 -19.29792057878158 -2.729725096751678 -2.7423738683962577 0 0 0
433 124 1 -1.054 -16.803912214390557 -0.1617077448420705 -7.671514077776618 0 0 1
1461 466 2 0.527 -15.089049293592339 -6.721731044417041 -0.2989697866768717 0 0 0
412 117 1 -1.054 -10.466098159690356 -5.1866753145245035 -6.6761199506746784 0 0 0
1320 419 2 0.527 -18.212035322476176 -6.906478743371885 -5.820628446086122 1 0 -1
687 208 2 0.527 -10.412560611687976 -8.04384082431206 -2.490167833914528 0 1 0
725 221 2 0.527 -20.09219584790719 -3.683395562663444 -1.87543853620973 0 0 0
184 41 1 -1.054 -11.194984504990995 0.18191598476459347 -2.061820511268346 0 0 0
247 62 1 -1.054 -19.754166605490553 6.262056465989753 -7.320626855402773 0 0 0
1121 353 2 0.527 -18.877821236591064 7.137552546409546 -0.1686777077007129 1 -1 0
692 210 2 0.527 -20.024914688329204 4.299114812570046 -7.547169983440664 0 0 0
703 214 1 -1.054 -17.84941809328826 3.9413616950432075 -5.6605276092676045 0 -1 -1
704 214 2 0.527 -18.587313722627393 4.001166541652665 -6.2673243559530425 0 -1 -1
397 112 1 -1.054 -12.610718609531657 2.117183957734209 -3.933507965784086 0 0 0
390 109 2 0.527 -15.127268365725461 5.468397191885392 -7.493997774304082 0 0 0
398 112 2 0.527 -12.187313645254475 1.4800458672513361 -3.35815789822586 0 0 0
705 214 2 0.527 -17.947309763819348 3.0834343523825023 -5.247477656409837 0 -1 -1
807 248 2 0.527 -12.52186035914906 1.409169221291842 -7.32182791953066 0 0 0
306 81 2 0.527 -17.997527110970804 6.654611270940819 -3.3346250692031205 0 -1 0
913 284 1 -1.054 -15.283511733497207 7.562913286443591 -4.981854211869713 0 -1 0
1267 402 1 -1.054 -15.485378563878516 2.1188240425134754 -3.6524503463351223 0 0 0
1269 402 2 0.527 -15.447583488563978 3.019388207229964 -3.33028729351628 0 0 0
582 173 2 0.527 -19.197866513917035 2.59541648683361 -1.379316949238687 0 -1 0
580 173 1 -1.054 -18.416907985469503 2.9610729942518628 -1.7948570124211267 0 -1 0
581 173 2 0.527 -17.98302691448019 3.454071589497227 -1.0984779314441644 0 -1 0
691 210 1 -1.054 -20.019359654653698 3.3682766073002686 -7.3241416047237795 0 0 0
643 194 1 -1.054 -12.73387926688061 6.785616420844585 -0.613907509084501 0 -1 0
805 248 1 -1.054 -13.114520857472899 0.6893476676385184 -7.5383121226911705 0 0 0
806 248 2 0.527 -13.134271420612027 0.14894539800141615 -6.748497300219694 0 0 0
1268 402 2 0.527 -16.41543880798523 1.960797113613646 -3.814639766732842 0 0 0
776 238 2 0.527 -15.971134273831517 7.5818918089709175 -1.2433385963873018 0 -1 0
775 238 1 -1.054 -15.504031719475446 7.615139796444575 -0.40849953348514045 0 -1 0
777 238 2 0.527 -14.67534083948706 7.1674444577724366 -0.5791400785590533 0 -1 0
633 190 2 0.527 -15.265524427391775 5.925217205651489 -3.581473381039652 0 1 0
1554 497 2 0.527 -18.613956914200898 1.8773847989573387 -3.3814442684774235 1 0 1
631 190 1 -1.054 -15.248333175149938 4.986902210527473 -3.393054778270854 0 1 0
632 190 2 0.527 -14.320112643098224 4.781572509541466 -3.28109163294317 0 1 0
830 256 2 0.527 -19.064199275883233 4.499230243962096 -3.114817548336549 0 0 0
829 256 1 -1.054 -19.00489073435827 5.3159823588980455 -3.610429063938825 0 0 0
1553 497 2 0.527 -19.286452299720953 1.157056414531496 -4.530706244029556 1 0 1
304 81 1 -1.054 -17.4223335250259 7.387580648274811 -3.1151644073393827 0 -1 0
305 81 2 0.527 -16.916641356929762 7.543022631350102 -3.9128882276707166 0 -1 0
831 256 2 0.527 -18.600311815325504 5.064127063769819 -4.440566269049693 0 0 0
113 17 2 0.527 -12.206960075089647 7.388274042784866 -6.470530642721946 0 0 0
1552 497 1 -1.054 -18.514337389139516 1.6790960634373686 -4.3125675133662345 1 0 1
915 284 2 0.527 -14.973588586471447 6.865447096062091 -5.559545363892075 0 -1 0
1505 481 2 0.527 -14.048562751891225 2.113129805434374 -6.920458520328896 1 0 1
1504 481 1 -1.054 -14.610188799524629 2.8497813469296105 -6.679266027543149 1 0 1
1506 481 2 0.527 -14.753104565520136 2.7446906874142396 -5.738647040422887 1 0 1
399 112 2 0.527 -13.537383813550885 2.0753275722241913 -3.6972268852397754 0 0 0
644 194 2 0.527 -12.603475838491198 6.25165612528501 -1.3975619710809557 0 -1 0
1255 398 1 -1.054 -13.253614231481968 5.861001880292056 -6.810026938659785 1 0 0
279 72 2 0.527 -15.376931624930151 0.8553763708719835 -2.0187061722784723 0 -1 0
277 72 1 -1.054 -15.048109165627864 0.5288285896700273 -1.1811606170730116 0 -1 0
388 109 1 -1.054 -16.06449201108875 5.379066680180211 -7.666979562461196 0 0 0
333 90 2 0.527 -10.341193698512422 5.772271131508157 -7.841653149257918 0 0 0
248 62 2 0.527 -19.367902922438482 6.760003399565541 -8.04110661172492 0 0 0
249 62 2 0.527 -19.3606945926603 6.63616569802724 -6.532296544074982 0 0 0
185 41 2 0.527 -11.003233118710535 0.3371838892009631 -1.136964754014854 0 0 0
267 68 2 0.527 -10.995683742150817 4.612295065055958 -2.5511328682959844 0 1 0
1122 353 2 0.527 -20.16944635396549 7.911565084255965 -0.01179100142055134 1 -1 0
934 291 1 -1.054 -10.748995112672144 2.407023846771896 -7.423710345778302 0 -1 0
563 167 2 0.527 -10.601895955281456 5.184723547678939 -4.525954643487374 0 0 0
265 68 1 -1.054 -11.731836916350327 4.70361147594212 -3.156119198149174 0 1 0
1257 398 2 0.527 -13.069058410981725 6.373053246338269 -7.597413609865011 1 0 0
1256 398 2 0.527 -12.572824612965192 5.188247728844912 -6.796226851772054 1 0 0
389 109 2 0.527 -16.366562624334982 4.735469041989308 -7.026063551656332 0 0 0
693 210 2 0.527 -19.40048092235962 2.9773971618339576 -7.94095626102569 0 0 0
266 68 2 0.527 -12.028057360224697 3.806633943475406 -3.3107936666376077 0 1 0
435 124 2 0.527 -16.91842079532838 0.7592114166816941 -7.4369326429694365 0 0 1
935 291 2 0.527 -10.388881445177093 1.7394936086466135 -8.007629866915735 0 -1 0
1348 429 1 -1.054 -19.99277480412142 -5.155003467899567 5.658369201466835 1 0 0
813 250 2 0.527 -10.484195734137291 -1.4460384707392668 0.878758549930593 0 0 -1
1228 389 1 -1.054 -20.04651207010363 -3.539087464042293 1.4280731970951521 1 0 0
1433 457 2 0.527 -19.60838219196295 -6.174680010265295 7.117185601133535 1 1 -1
616 185 1 -1.054 -19.02972828144481 -3.014287164995835 8.021697254704236 0 0 0
264 67 2 0.527 -12.25430883781995 -1.6573585892466127 7.381389274104668 0 0 -1
618 185 2 0.527 -18.453405949890627 -3.5610473607877378 7.487691241068246 0 0 0
1432 457 1 -1.054 -19.662575983096318 -6.376403448205483 8.051317692125536 1 1 -1
263 67 2 0.527 -13.258943245217104 -0.5954111169554599 6.987765075185578 0 0 -1
811 250 1 -1.054 -10.475269535688664 -0.5165011466898406 0.6504757557390892 0 0 -1
141 26 2 0.527 -16.30445980529872 -4.087634158997566 6.676585942035436 0 0 -1
139 26 1 -1.054 -17.065696305957847 -4.666849801074855 6.712638262563896 0 0 -1
140 26 2 0.527 -17.243523074712215 -4.8866726978091535 5.7981489020846375 0 0 -1
554 164 2 0.527 -20.418656798682203 -1.939116447269945 5.304085889436356 0 0 -1
1229 389 2 0.527 -19.09639579706764 -3.448720719111801 1.5016023640402079 1 0 0
262 67 1 -1.054 -12.918027879895856 -1.4499411833433467 6.7235770829475925 0 0 -1
617 185 2 0.527 -18.692636412313295 -2.1258993615665194 7.906045043347792 0 0 0
553 164 1 -1.054 -19.984911649116906 -1.0867472518974859 5.3437913851270835 0 0 -1
115 18 1 -1.054 -17.103268956329714 -0.8274276141964974 2.8357628256334824 0 0 -1
968 302 2 0.527 -16.942053044161195 -3.2513149130792574 1.0476176812128752 1 0 0
555 164 2 0.527 -20.541712593636607 -0.5606619890814688 5.917777299579113 0 0 -1
714 217 2 0.527 -11.42565109606017 -3.4360667489710783 0.5405191189531227 0 -1 1
1439 459 2 0.527 -17.216926557784053 -4.608431359304309 3.3629046371287252 1 1 -1
1440 459 2 0.527 -18.07861887346089 -5.824802173870454 3.6272420480572496 1 1 -1
181 40 1 -1.054 -20.079379500775996 -6.157867305666815 3.063415504546329 0 0 0
142 27 1 -1.054 -14.66963666539203 -3.535057662188928 6.233468899290608 0 0 -1
967 302 1 -1.054 -17.367665764938394 -3.4278989670840376 1.8866143442725232 1 0 0
94 11 1 -1.054 -15.926722046881075 -7.392360716668894 6.131131618876859 0 0 0
96 11 2 0.527 -16.76634412899196 -7.84310755564524 6.040891028846023 0 0 0
143 27 2 0.527 -14.230556746008599 -4.297930686983845 6.609605697272176 0 0 -1
144 27 2 0.527 -14.053774689862838 -2.8143019924414805 6.365695151627627 0 0 -1
280 73 1 -1.054 -14.402238783510938 -2.3158062779112054 3.8017562168070747 0 1 -1
282 73 2 0.527 -15.197495750625501 -1.858546283705989 3.528346861792688 0 1 -1
281 73 2 0.527 -14.634723867053216 -2.723730125610559 4.635893868507585 0 1 -1
1438 459 1 -1.054 -17.457823941244495 -5.2307638851390585 4.049131399484352 1 1 -1
804 247 2 0.527 -11.98320823355599 -3.6926340349984565 4.414561344569959 0 0 -1
1557 498 2 0.527 -14.128974327961135 -4.202981065231368 3.0447848371264072 1 0 0
1556 498 2 0.527 -14.365545817272029 -5.018707069632817 1.7915788516395672 1 0 0
1555 498 1 -1.054 -13.74948082826947 -4.90423616705135 2.5151934637101085 1 0 0
803 247 2 0.527 -11.669188392251744 -5.151944049708389 4.162153677304104 0 0 -1
802 247 1 -1.054 -12.071780014093955 -4.563818882692979 4.801116385851566 0 0 -1
444 127 2 0.527 -12.702262916075963 -5.244025602230668 6.584589791298953 0 1 0
443 127 2 0.527 -12.453013608759495 -5.484045099446635 8.05841676810198 0 1 0
442 127 1 -1.054 -13.08720844346053 -5.650482110722159 7.361025344141256 0 1 0
95 11 2 0.527 -16.114046609015837 -6.64841770126634 6.703575930883531 0 0 0
675 204 2 0.527 -15.11446814966938 -7.312063350133217 4.519371373648342 0 1 0
152 30 2 0.527 -12.227015030352463 -1.6317314968052514 5.003048128640351 0 -1 -1
513 150 2 0.527 -11.910066757498976 -7.419382587942697 4.409390184441321 0 1 -1
116 18 2 0.527 -17.46072054341903 -0.21599887369928705 3.4796748715280597 0 0 -1
969 302 2 0.527 -17.366123663033708 -2.584222198970412 2.338763657483055 1 0 0
713 217 2 0.527 -11.56422216771079 -2.66317006722348 1.8348626340350123 0 -1 1
663 200 2 0.527 -10.725710991715921 -6.2667743990038 2.0476090699521183 0 0 0
712 217 1 -1.054 -10.933099255474234 -3.1587643707664546 1.313012175988959 0 -1 1
822 253 2 0.527 -13.345057100353861 -7.597075187866458 7.24169335261697 0 1 -1
183 40 2 0.527 -20.034470284726215 -6.369988168320701 2.1310958050734623 0 0 0
151 30 1 -1.054 -11.66029538153513 -1.65894034078935 4.232111762401475 0 -1 -1
661 200 1 -1.054 -11.324962933197297 -6.3606101569206555 2.7881142900112685 0 0 0
1100 346 2 0.527 -10.705672457569625 -7.389295221516345 6.538212228475498 1 1 -1
117 18 2 0.527 -17.38330539303072 -0.4765296054724919 1.9903709669813558 0 0 -1
673 204 1 -1.054 -14.56941216658155 -7.658944875846449 3.8130854108492134 0 1 0
153 30 2 0.527 -11.476234306721057 -0.7400873787436364 4.037008301511307 0 -1 -1
662 200 2 0.527 -12.163496120669308 -6.034733026841751 2.4610880149227548 0 0 0
812 250 2 0.527 -10.357275201633904 -0.0652281080775996 1.486336814445167 0 0 -1
674 204 2 0.527 -14.372806287936335 -6.898459019647182 3.2660555677102767 0 1 0
1230 389 2 0.527 -20.326322796628503 -3.8422020039401144 2.2918238081445352 1 0 0
380 106 2 0.527 -14.877441061456139 -0.15628988383391818 5.400230462525773 0 0 -1
434 124 2 0.527 -16.276680228567287 -0.14215183978651513 7.761317590844099 0 0 0
1350 429 2 0.527 -19.66177739746326 -5.385758242561071 4.790364372742735 1 0 0
720 219 2 0.527 -20.34390050416814 -1.3871399858119222 2.3339858049514 0 0 0
182 40 2 0.527 -20.412881772729687 -6.955059550646476 3.4751208059329226 0 0 0
1349 429 2 0.527 -20.44089805526478 -4.318985827520296 5.52989378883556 1 0 0
381 106 2 0.527 -15.269513696220029 1.2075806726153537 5.9275269194867395 0 0 -1
764 234 2 0.527 -19.326524825261288 4.9427766662950035 4.720194835553896 0 -1 -1
180 39 2 0.527 -14.41653573842217 3.911899842275936 0.8332272069893794 0 0 1
178 39 1 -1.054 -15.184398381342227 4.449841173213684 1.0263015992789732 0 0 1
179 39 2 0.527 -15.064373433400455 4.721596455445681 1.9362333881293097 0 0 1
316 85 1 -1.054 -10.537312110935872 5.666715408668688 4.278523332448717 0 -1 -1
1436 458 2 0.527 -17.375641345435074 0.20196927589617886 0.11473465888434653 1 0 0
1120 353 1 -1.054 -19.492061305676458 7.459397569525539 0.4911565519229786 1 -1 0
1508 482 2 0.527 -18.41943395919312 5.803373730498439 2.379014000741165 1 -1 -1
786 241 2 0.527 -20.33382163105697 3.07095423381546 3.866585979444208 0 0 0
511 150 1 -1.054 -12.034285417047894 7.928825086187654 4.756625398962109 0 0 -1
512 150 2 0.527 -12.829114546251096 7.9888828525052205 5.286637901259672 0 0 -1
821 253 2 0.527 -14.415023407193193 7.721157788939038 6.682175832542077 0 0 -1
820 253 1 -1.054 -13.564681605190263 7.710546907678321 7.121593639730811 0 0 -1
1392 443 2 0.527 -15.816374793263602 7.854936412681825 2.7266585458556705 1 0 0
1390 443 1 -1.054 -16.53738566348919 7.33753399082814 2.3679038776116172 1 0 0
135 24 2 0.527 -10.685751902833335 1.5122094933753836 3.6653623167832254 0 0 0
424 121 1 -1.054 -15.867601567387544 2.431696590140332 3.5058172792172506 0 -1 0
596 178 2 0.527 -12.104654812973905 3.142004499033469 5.024069036331591 0 1 -2
1513 484 1 -1.054 -15.530668909071728 2.8662900999370287 6.725730133264857 1 0 -1
1435 458 1 -1.054 -18.140099741005884 0.2958209372873224 0.6831244935573881 1 0 0
667 202 1 -1.054 -12.90609516404486 5.773339587534204 2.2335239629783192 0 -1 -1
623 187 2 0.527 -16.65967456861353 3.6544666514205186 0.9369120460362605 0 -1 1
622 187 1 -1.054 -17.486496593083043 3.211036541608122 1.1266801879357828 0 -1 1
624 187 2 0.527 -17.977957645087017 3.8369534282303093 1.658602883149003 0 -1 1
521 153 2 0.527 -11.476287453373487 3.7911526227658072 7.7259870488135896 0 -1 -1
520 153 1 -1.054 -11.594399926691981 4.7071109536731655 7.474386467363113 0 -1 -1
522 153 2 0.527 -12.098894098206948 4.669641982015097 6.661779209939757 0 -1 -1
645 194 2 0.527 -12.850448948360587 6.150434287466219 0.09262501237988197 0 -1 0
763 234 1 -1.054 -19.700281273773097 5.053755034766304 5.594398270448849 0 -1 -1
1391 443 2 0.527 -16.43208384979284 7.404844321234789 1.4188970806077794 1 0 0
317 85 2 0.527 -11.068651183732314 6.454996647632033 4.390519580827901 0 -1 -1
668 202 2 0.527 -13.291461368345242 6.648910736880845 2.266836466802065 0 -1 -1
669 202 2 0.527 -12.319249305520161 5.74050659277346 2.9890295074702706 0 -1 -1
660 199 2 0.527 -14.311951071782028 3.6628181874259873 5.835561073102722 0 0 -1
1437 458 2 0.527 -18.039800381545383 1.161422743807032 1.0792387377684776 1 0 0
1548 495 2 0.527 -11.61489057110799 3.6078966681968865 0.2745908422339163 0 -1 0
1547 495 2 0.527 -12.426608719791394 4.339509301377818 1.3223487755162306 0 -1 0
848 262 2 0.527 -18.23296998727542 0.3222620690219262 5.320504776739247 1 0 0
1515 484 2 0.527 -16.457977632804386 3.1037126268073383 6.730096695357171 1 0 -1
733 224 1 -1.054 -14.369954208911091 1.365383554174759 1.272227465014037 0 0 -1
223 54 1 -1.054 -18.425541388819628 2.8710454002090664 6.72053025933095 0 0 0
224 54 2 0.527 -19.084722354481357 3.535289209800835 6.519224432460476 0 0 0
1509 482 2 0.527 -19.836440470312695 5.272127941635333 2.422610067122722 1 -1 -1
735 224 2 0.527 -14.735628952763143 1.1888145252013747 0.4054244758444714 0 0 -1
1546 495 1 -1.054 -12.510089350704666 3.7260892738913096 0.5922938952644756 0 -1 0
960 299 2 0.527 -17.360529413636304 6.605473211368542 7.262195541068142 1 -1 0
958 299 1 -1.054 -17.895192033946067 7.09692809883925 6.638609390156843 1 -1 0
959 299 2 0.527 -18.58752902241996 6.487221476095435 6.383284810689153 1 -1 0
225 54 2 0.527 -18.508254821800982 2.229352725655337 6.015107022516464 0 0 0
426 121 2 0.527 -16.645684655521368 2.6487002067332988 2.9922326067592664 0 -1 0
734 224 2 0.527 -13.446917116177639 1.5589426709624625 1.1084417270799065 0 0 -1
379 106 1 -1.054 -15.595947755885408 0.3138098095363908 5.823337641158023 0 0 -1
1514 484 2 0.527 -15.213605427861589 3.121101474678605 7.592206162969509 1 0 -1
658 199 1 -1.054 -13.76130632962446 3.7810919084164496 5.061575361307069 0 0 -1
1507 482 1 -1.054 -18.945303232403255 5.076178963605699 2.7120303695320622 1 -1 -1
659 199 2 0.527 -14.317797774184632 3.517687985264711 4.328644272794227 0 0 -1
849 262 2 0.527 -17.19211672541687 1.1738719974826246 4.625267872087424 1 0 0
425 121 2 0.527 -15.30312901223404 1.9555538691762138 2.8967908545053724 0 -1 0
847 262 1 -1.054 -18.127141468881558 0.9688991562298988 4.622726734475268 1 0 0
785 241 2 0.527 -20.12019654242658 1.6049161201670046 4.178025690656558 0 0 0
595 178 1 -1.054 -11.171289799156435 2.9702593552371166 4.899074223099076 0 1 -2
597 178 2 0.527 -10.838568765505043 3.756212576207922 4.465700048170191 0 1 -2
133 24 1 -1.054 -10.428815522199569 0.7201528297334736 3.193274740579687 0 0 0
765 234 2 0.527 -20.58060802720067 5.395335878316157 5.437457040598545 0 -1 -1
1485 474 2 0.527 -6.238184728538139 -1.7582641635383993 -6.198729541197926 0 0 0
1484 474 2 0.527 -6.878245558637655 -2.531158179717643 -7.332255145520299 0 0 0
696 211 2 0.527 -6.058449756933509 -5.843373784965818 -1.7175541803781993 0 0 -1
1483 474 1 -1.054 -7.062065705865331 -2.165008050458778 -6.467165860287177 0 0 0
695 211 2 0.527 -7.54218168114601 -5.84180771380297 -2.0185195678839856 0 0 -1
694 211 1 -1.054 -6.738675428644768 -6.338121859712726 -2.1744811911129194 0 0 -1
1325 421 2 0.527 -4.506432254398696 -4.946123385421631 -5.991940544356005 0 0 0
478 139 1 -1.054 -5.678109356610845 -3.162438248359651 -2.685752151631095 0 1 0
1380 439 2 0.527 -4.526168634226249 -3.9772076380107793 -3.77011746588936 0 1 0
1378 439 1 -1.054 -3.8258035300332693 -4.489472688499403 -4.174268698213073 0 1 0
1379 439 2 0.527 -3.957235831915657 -5.378201341547536 -3.843935605852262 0 1 0
32 1 5 0.09 -2.8058494882066434 -0.9686269927735109 -2.6232863631773258 0 0 0
770 236 2 0.527 -7.643420039810566 -3.336140704020197 -5.401620366640633 0 0 0
417 118 2 0.527 -5.91307955009362 -6.743811185830219 -4.134556325704054 0 1 0
1305 414 2 0.527 -2.726547231435031 -3.0701597370288267 -4.585546701966498 0 0 0
1303 414 1 -1.054 -2.405374491078959 -2.2561087683368006 -4.973373180601031 0 0 0
1304 414 2 0.527 -1.6195892809469186 -2.5136370894243694 -5.45554999760578 0 0 0
481 140 1 -1.054 -2.0455988279219 -7.135985466253424 -2.0076289005670906 0 0 0
482 140 2 0.527 -2.059043019965184 -6.454360901338574 -1.3357358100727286 0 0 0
771 236 2 0.527 -8.006563260701816 -4.75318730811741 -5.011731892065455 0 0 0
769 236 1 -1.054 -7.89159381767281 -3.874443024405605 -4.650036197770088 0 0 0
1326 421 2 0.527 -4.530647684597305 -5.428245056059153 -7.426816258107629 0 0 0
479 139 2 0.527 -5.826420045829458 -2.2617711775588276 -2.3975921657887955 0 1 0
1324 421 1 -1.054 -5.093719709394721 -5.289656755382417 -6.665242085559728 0 0 0
480 139 2 0.527 -6.457464146731903 -3.3825405496350793 -3.196079323795723 0 1 0
483 140 2 0.527 -1.8267831204263487 -6.672057296205311 -2.8157906317907937 0 0 0
416 118 2 0.527 -5.526766258901125 -6.633577464877123 -5.594185335105497 0 1 0
672 203 2 0.527 -3.993269318081431 -1.433740046780172 -5.1017364345826515 0 0 0
670 203 1 -1.054 -4.89398849568453 -1.1292525010646939 -5.21254771641191 0 0 0
615 184 2 0.527 -6.82376583536929 -0.1715980342480501 -1.1906228074518426 0 1 -1
613 184 1 -1.054 -7.198622111307982 -0.8134020069468413 -1.7937909476000726 0 1 -1
274 71 1 -1.054 -3.471071421110018 -2.581689571018634 -7.729741326990045 0 1 1
276 71 2 0.527 -3.445315566577907 -2.1082852838771267 -6.898202451045363 0 1 1
350 96 2 0.527 -8.305063615908848 -7.044474585549664 -5.714387464198809 0 1 0
671 203 2 0.527 -5.19582251890747 -0.943997056093778 -4.323270023083783 0 0 0
415 118 1 -1.054 -5.534700976610669 -7.244485863267211 -4.857326062207042 0 1 0
31 1 3 -0.01 -2.0624604758731166 -0.1704029810098202 -2.2618812494002167 0 0 0
486 141 2 0.527 -8.386659467306417 -1.015333879194917 -6.322010401612297 0 0 1
484 141 1 -1.054 -9.237033222707838 -0.5760086735419527 -6.333813361572156 0 0 1
767 235 2 0.527 -9.143949537411615 -4.655988216369251 -2.7945070021018656 0 0 -1
387 108 2 0.527 -7.4713125818560435 -2.201418125594728 -0.9520724279970363 0 1 0
351 96 2 0.527 -9.042244728053731 -7.149017422221778 -4.396219024668075 0 1 0
768 235 2 0.527 -8.788781721680714 -3.98390858462667 -1.485282419516512 0 0 -1
349 96 1 -1.054 -8.781248669349777 -6.52100945161831 -5.069809603457822 0 1 0
454 131 1 -1.054 -1.6361808460538683 -7.845285808868355 -5.121113499020249 0 0 1
732 223 2 0.527 -1.7516171328288621 -8.019208760813454 -7.097757396100187 0 1 1
413 117 2 0.527 -10.051614900459567 -5.578032817106281 -5.907167671777248 0 0 0
485 141 2 0.527 -9.316688654401315 -0.23119306205130474 -7.223189262723106 0 0 1
614 184 2 0.527 -7.9331055837643 -0.3567992234436588 -2.2040547058593356 0 1 -1
1259 399 2 0.527 -3.988054329544596 -0.5019352374070225 -0.32734722054906573 0 0 0
367 102 1 -1.054 -4.463390390478896 -5.3962711654497335 -0.6546542566450029 0 0 -1
369 102 2 0.527 -4.86866934476706 -4.666160196008937 -0.1867547091133952 0 0 -1
368 102 2 0.527 -3.525724500839413 -5.2956502657936 -0.4904938301640538 0 0 -1
641 193 2 0.527 -2.0425399528964547 -2.0827016484562986 -0.10021383310298404 0 0 0
385 108 1 -1.054 -7.547078431189313 -3.0585632764377326 -0.5327945809496573 0 1 0
35 1 5 0.09 -0.5042823993549419 -0.7691492445622901 -3.5741373883291336 0 0 0
1522 487 1 -1.054 -0.8253029981039717 -5.211178471445557 -4.398821458662629 0 0 0
1293 410 2 0.527 -0.3159571299602746 -3.9344692455783523 -5.803326507021993 0 0 1
270 69 2 0.527 -10.302886052941185 -2.007445406128345 -7.410876961585473 0 1 0
766 235 1 -1.054 -9.445519945400411 -4.548909678987792 -1.8923827034412453 0 0 -1
39 1 5 0.09 -1.079671644606286 -3.307304135247124 -2.0082261129725723 0 0 0
1524 487 2 0.527 -1.3487340924882645 -5.936624573193383 -4.739407208043769 0 0 0
34 1 3 -0.01 -0.6633362543781196 -0.823478671039064 -2.4185253829686424 0 0 0
37 1 4 -0.34 -0.610887044248372 -1.6674337185034016 -1.6491577170083298 0 0 0
38 1 3 -0.01 -0.13804792565300517 -2.6384398456376683 -2.0233406469001496 0 0 0
1291 410 1 -1.054 -0.12348821929405318 -3.187103334855295 -6.369573138433572 0 0 1
1523 487 2 0.527 -0.01200902897926781 -5.620199550553948 -4.102968299552689 0 0 0
42 1 5 0.09 -0.00051487199063871 -3.400911399829014 -0.110660154222737 0 0 0
560 166 2 0.527 -9.954775378613352 -6.87513254111863 -0.3044266904923276 0 0 0
414 117 2 0.527 -9.96073410538607 -5.520713202435603 -7.417250784888062 0 0 0
332 90 2 0.527 -9.617421364641562 6.101342918105017 -6.553322424887899 0 0 0
540 159 2 0.527 -4.219666045892833 6.8294597705552835 -3.8011741217247046 0 0 0
27 1 3 -0.01 -1.8294940843743461 1.1628140993664893 -0.7050169012858554 0 0 0
33 1 5 0.09 -2.297889147976594 0.6440910964365418 -3.0355132525044892 0 0 0
30 1 4 -0.34 -2.2936975806274695 0.16233945972205355 -1.1480395183742624 0 0 0
258 65 2 0.527 -8.439653960823016 7.545627478410314 -7.361001738529921 0 0 0
257 65 2 0.527 -7.021836740179696 7.456517118085797 -6.837664976589045 0 0 0
256 65 1 -1.054 -7.667446750849091 8.07892202083569 -7.172417575222296 0 0 0
456 131 2 0.527 -2.3508465188915864 8.083623509032947 -4.560800825114792 0 -1 1
730 223 1 -1.054 -1.879543079016866 7.950619414017446 -8.009562564055601 0 0 1
517 152 1 -1.054 -9.17599558244397 0.8739783437078472 -3.7247587258762946 0 0 0
1317 418 2 0.527 -7.1784259668674455 7.240171999663392 -0.4050082416146292 1 0 0
1316 418 2 0.527 -6.859623861843952 7.870819135810093 -1.7438706586636945 1 0 0
686 208 2 0.527 -8.932631352050135 7.895968891559875 -2.36071020270811 0 0 0
336 91 2 0.527 -2.555847828153702 3.9356780090445547 -6.594300045936049 0 0 0
518 152 2 0.527 -9.43281301129984 0.6070348104583321 -4.607381255680107 0 0 0
149 29 2 0.527 -4.875827353728543 0.6501881787644859 -2.174031513764242 0 -1 1
539 159 2 0.527 -3.542355352291583 6.141139330203712 -4.9671043750426085 0 0 0
538 159 1 -1.054 -3.4465288660620566 6.313759477934253 -4.030486569563532 0 0 0
330 89 2 0.527 -7.159425864227668 2.3148674816500794 -1.6221202278539426 0 0 1
329 89 2 0.527 -8.142025959785213 2.0709641367003737 -2.747718519122417 0 0 1
1074 337 2 0.527 -5.183908696324568 4.446817004783277 -2.4994487184660237 0 0 0
1073 337 2 0.527 -3.7704041531176387 4.5562519530485535 -3.0305393775226275 0 0 0
1072 337 1 -1.054 -4.306967382760927 4.0762677499602855 -2.399693162079017 0 0 0