LAMMPS data file via write_data, version 15 Sep 2022, timestep = 10000

1350 atoms
7 atom types
921 bonds
6 bond types
546 angles
9 angle types
74 dihedrals
14 dihedral types

-22.479349943283307 22.479349943283307 xlo xhi
-8.777635282492229 8.777635282492229 ylo yhi
-8.777635282492229 8.777635282492229 zlo zhi

Masses

1 15.9994
2 1.008
3 12.011
4 15.9994
5 1.008
6 15.9994
7 1.008

Pair Coeffs # lj/cut/tip4p/long

1 0.185199 3.1589
2 0 0
3 0.056 3.58141
4 0.1 2.93997
5 0.035 2.38761
6 0.192 3.14487
7 0.046 0.40001

Bond Coeffs # harmonic

1 0 0.9572
2 222.35 1.53
3 308.79 1.1111
4 359.76 1.1415
5 427.715 1.142
6 544.635 0.96

Angle Coeffs # charmm

1 0 104.52 0 0
2 50 109 0 0
3 26.5 110.1 22.53 2.179
4 45 111.5 0 0
5 13.0258 109.4 0 0
6 35.5 109 5.4 1.802
7 55 108.89 0 0
8 75.7 110.1 0 0
9 95 109.7 0 0

Dihedral Coeffs # charmm

1 0.57 1 0 0
2 0.29 2 0 0
3 0.43 3 0 0
4 0.59 1 180 0
5 1.16 2 0 0
6 0.12 1 0 0
7 0.42 2 0 0
8 0.29 3 0 0
9 2.87 1 180 0
10 0.03 2 0 0
11 0.23 3 0 0
12 1.36 1 180 0
13 0.16 2 0 0
14 1.01 3 0 0

Atoms # full

277 72 1 -1.054 -18.274053261829348 -3.146560406792144 -3.318466006122252 0 0 0
278 72 2 0.527 -19.19295564841513 -3.2701526899927904 -3.556134007728434 0 0 0
279 72 2 0.527 -17.91429143077595 -4.0328283826548255 -3.282153413106103 0 0 0
2051 663 2 0.527 -21.334313683766705 -3.3613249465141175 -6.813584432885649 1 0 0
2050 663 1 -1.054 -20.985727904331583 -4.235658455043147 -6.987504227965181 1 0 0
520 153 1 -1.054 -21.140499465017616 -1.0704599609432162 -1.0681614049653243 0 1 1
490 143 1 -1.054 -11.49711903573891 -0.8437871761239384 -0.010831048307148095 0 0 1
1073 337 2 0.527 -15.89675893353785 -3.3190176437347017 -0.822732867462781 0 0 0
833 257 2 0.527 -14.918484384828467 -1.3791315915873454 -0.4872205288900773 0 -1 0
961 300 1 -1.054 -20.827371609298645 -4.4251911565530575 -4.118312337675264 0 0 0
963 300 2 0.527 -20.758305235634072 -4.35762620184296 -5.070623766586283 0 0 0
292 77 1 -1.054 -21.272798629595606 -6.838007515953093 -6.572917474462509 0 0 0
617 185 2 0.527 -16.333554878776788 -1.0498209344184781 -4.623505991959253 0 0 -1
618 185 2 0.527 -15.74188665023077 -2.30625269390213 -5.226140466203953 0 0 -1
616 185 1 -1.054 -16.24999329510056 -1.5263927485972477 -5.449416552295924 0 0 -1
596 178 2 0.527 -14.628841444632549 -1.2134074275479305 -6.862404100167069 0 0 0
595 178 1 -1.054 -13.703749525327087 -1.3931550420502452 -7.029845702825926 0 0 0
350 96 2 0.527 -14.465496289286198 -6.463884135249096 -2.5832513505415733 0 1 1
349 96 1 -1.054 -14.000046233105516 -5.631026021542814 -2.5063575725846823 0 1 1
351 96 2 0.527 -13.074762927251474 -5.865978902811365 -2.575569461953589 0 1 1
2052 663 2 0.527 -20.095629917128193 -4.080628279308861 -7.303478988202649 1 0 0
270 69 2 0.527 -17.585009094248726 -4.379326359023969 -6.740492364388258 0 1 0
268 69 1 -1.054 -18.241625063726858 -3.7684196247950617 -6.406074512041161 0 1 0
269 69 2 0.527 -17.764592827303932 -2.948039535872799 -6.2810792249647065 0 1 0
448 129 1 -1.054 -17.607997282051883 2.5114516933589712 -8.454071781466554 0 0 0
449 129 2 0.527 -17.459388133218052 2.7447905674222532 8.184847804227017 0 0 -1
2081 673 2 0.527 -20.710684327263692 8.715716300906935 -0.19666462993879996 1 -1 0
597 178 2 0.527 -13.25323092393051 -1.084571804819583 -6.243703361230528 0 0 0
962 300 2 0.527 -21.105667199955274 -5.3274782326259515 -3.9612949029343953 0 0 0
393 110 2 0.527 -17.728651339656707 -6.135861619770958 -3.347362295223876 0 1 1
391 110 1 -1.054 -17.041110355240686 -5.62268731574853 -3.7717702527230452 0 1 1
494 144 2 0.527 -18.948499029169213 -7.364006316378064 -1.8027731530640345 0 1 0
207 48 2 0.527 -12.726917333682323 -3.6312296057980626 -1.9101327740699894 0 0 0
493 144 1 -1.054 -18.8332444532901 -7.531575216827885 -2.738116919685721 0 1 0
205 48 1 -1.054 -12.938244664936237 -2.822419014244046 -2.3763879718015204 0 0 0
392 110 2 0.527 -17.4173265562937 -5.367626562288114 -4.614160690610758 0 1 1
495 144 2 0.527 -19.611363671405723 -7.153169777484551 -3.147395125270984 0 1 0
1095 344 2 0.527 -21.558938065278614 -4.007035606858752 -2.1702756422595924 0 0 0
206 48 2 0.527 -13.22536470404497 -2.2185748877878178 -1.6914360782309679 0 0 0
1044 327 2 0.527 -16.256229397107234 -6.529976354759918 -7.9634219613478985 0 0 1
1042 327 1 -1.054 -16.198953332838524 -6.23665290485962 -7.0540744824231805 0 0 1
832 257 1 -1.054 -14.19278135900578 -0.9260570786765925 -0.9164688228788211 0 -1 0
834 257 2 0.527 -13.527134619820213 -0.8389390328798285 -0.23418584797632036 0 -1 0
431 123 2 0.527 -20.779940001840423 4.940737891154077 -4.818438149497705 0 0 0
2080 673 1 -1.054 -21.075795491941285 -7.985095777479937 -0.4264749582174492 1 0 0
294 77 2 0.527 -21.21133820028861 -5.907443561628773 -6.788567157449853 0 0 0
293 77 2 0.527 -22.154567454340423 -7.090115858902697 -6.846913407320249 0 0 0
1093 344 1 -1.054 -21.868833749803024 -3.6186125994392713 -1.3521597471982112 0 0 0
435 124 2 0.527 -20.68493138405688 6.839178539547836 -3.4212556232930487 0 -1 0
1074 337 2 0.527 -15.351680784603992 -4.501375510473796 -1.5952511975831207 0 0 0
1072 337 1 -1.054 -15.720778678366004 -4.256816354564748 -0.7466192504743621 0 0 0
383 107 2 0.527 -14.37917415157046 -3.4656655212903296 -3.9435075394783707 0 -1 0
1671 536 2 0.527 -17.06829103963742 -3.4815812904969494 -8.44987534814543 1 1 0
464 134 2 0.527 -18.394146483004462 -8.147077224502675 -6.850590792555752 0 1 0
465 134 2 0.527 -19.550219471843608 -7.209835707451988 -6.573412079157781 0 1 0
463 134 1 -1.054 -18.624845870794076 -7.3502012668870185 -6.373104151074356 0 1 0
1134 357 2 0.527 -14.579980622968222 -5.948322399433152 -6.426120602904764 0 1 1
452 130 2 0.527 -17.819284748780596 -5.2196085512379184 -0.5615031442728675 0 1 0
451 130 1 -1.054 -18.298196829668704 -5.969729920719171 -0.20912797304955788 0 1 0
1043 327 2 0.527 -16.7617687984048 -6.841592781858365 -6.570873347198549 0 0 1
1132 357 1 -1.054 -13.772451927653607 -5.841904205047264 -5.923393018225762 0 1 1
2082 673 2 0.527 -21.60077986940953 -7.736028894006259 0.33415564544150556 1 0 0
382 107 1 -1.054 -14.95540112638238 -3.8549123123875724 -4.601265267336853 0 -1 0
514 151 1 -1.054 -21.56603679104229 -6.990194744562087 -3.1416697773890956 0 -1 1
1133 357 2 0.527 -13.869558371848283 -4.994014301959432 -5.489937423585982 0 1 1
516 151 2 0.527 -21.49634835378422 -7.001143297042704 -2.187072615264414 0 -1 1
260 66 2 0.527 -20.457486029201213 -1.2795201670263596 -8.15555380979405 0 0 1
89 9 2 0.527 -11.52205830579169 1.2309369139063477 -8.245392258991867 0 0 1
158 32 2 0.527 -16.85201594905084 8.453295354583906 -8.568309364467325 0 0 1
384 107 2 0.527 -15.250224373266473 -4.675581687907538 -4.20654431155599 0 -1 0
537 158 2 0.527 -18.050307223060436 0.058063888969309474 -6.717377003571079 0 0 0
261 66 2 0.527 -19.43749859049938 -0.8927505589556661 8.350041751467897 0 0 0
1267 402 1 -1.054 -16.7532336823967 -1.9015495661936201 -0.007668777778910396 0 0 0
522 153 2 0.527 -21.33747030794556 -1.9908370993634659 -1.242344061066139 0 1 1
118 19 1 -1.054 -11.92726718988506 3.194317741632128 -4.716613858077845 0 -1 0
259 66 1 -1.054 -20.228296067048824 -1.4160095818546186 8.480440551130469 0 0 0
536 158 2 0.527 -18.51338184277386 1.4741560464284174 -6.985923419577978 0 0 0
1766 568 2 0.527 -22.10025071898587 -0.5818515516264728 0.8345275812392803 1 0 -1
781 240 1 -1.054 -11.468130571828372 -6.556670206315879 -2.97745578084219 0 0 0
479 139 2 0.527 -12.22052895304635 7.9370845907160845 -4.180938277897752 0 0 0
678 205 2 0.527 -11.832390894656145 1.1932137430505545 4.620078423302759 0 0 0
433 124 1 -1.054 -21.05855704731769 5.968455207254795 -3.2853790932050195 0 -1 0
1547 495 2 0.527 -11.723944895787973 -7.873433096300267 -1.3675696435200084 0 0 0
558 165 2 0.527 -17.475351384080202 -1.2947288389343274 -2.618913810843374 0 0 1
557 165 2 0.527 -17.40964189820454 0.15064380739349303 -2.1734082937226287 0 0 1
556 165 1 -1.054 -17.14265048176337 -0.43628433239975983 -2.8808369717243183 0 0 1
783 240 2 0.527 -11.751334751764892 -7.27973173690707 -3.5370986916154976 0 0 0
1801 580 1 -1.054 -22.15092611905934 1.4276056695088322 -2.992872251887005 1 1 0
1802 580 2 0.527 -21.415746645310207 1.6444533601110471 -3.5661653868790815 1 1 0
854 264 2 0.527 -14.436852338290285 -8.544896755331145 -6.3199838300910125 0 0 0
476 138 2 0.527 -15.465816682070503 0.3029534860001153 -3.381696134475977 0 0 1
853 264 1 -1.054 -14.742321266499477 -8.53861851755705 -5.412860500945778 0 0 0
855 264 2 0.527 -14.805833940311597 -7.610511292594473 -5.187439336317512 0 0 0
1546 495 1 -1.054 -11.346960829653867 -8.119894889293404 -0.5229653728365982 0 0 0
1889 609 2 0.527 -18.977498061778697 3.7762161864585497 -8.74443188504235 1 0 0
2102 680 2 0.527 -19.56443457719373 -0.10864716240788752 -0.6157874137766903 1 0 0
985 308 1 -1.054 -21.83688540703772 2.895646246033893 -7.845481233251151 0 0 0
475 138 1 -1.054 -14.730719162790912 0.5870908612593606 -3.924901623585547 0 0 1
477 138 2 0.527 -14.005654187598795 0.019612460833691614 -3.663319588406723 0 0 1
1904 614 2 0.527 -13.543149621404185 1.7335904030015978 7.831581619929652 1 0 0
1727 555 2 0.527 -15.66446845180835 2.5773553853234237 -0.980610149809996 1 0 0
201 46 2 0.527 -20.708673626657855 3.2418136373725837 -0.7447441127957308 0 0 1
199 46 1 -1.054 -21.365716769153206 2.654074480767738 -0.37185669232722063 0 0 1
1013 317 2 0.527 -15.56496854173782 8.716504650470915 -2.6378684463433544 0 0 0
1012 317 1 -1.054 -14.78246876410088 -8.437631947749633 -2.259776121040222 0 1 0
1014 317 2 0.527 -14.05607952073708 8.742077392772442 -2.757258295957346 0 0 0
1726 555 1 -1.054 -16.59032725862716 2.7995063926171007 -0.8827516137191012 1 0 0
1728 555 2 0.527 -16.59290863407557 3.57661765785282 -0.3238924215587886 1 0 0
103 14 1 -1.054 -16.40693045375815 6.857687452970609 -6.216177983084902 0 -1 0
119 19 2 0.527 -12.467732986797275 2.5729354044138617 -5.20444613809563 0 -1 0
1016 318 2 0.527 -21.103154028018334 2.642863328573066 4.846123044320999 0 0 -1
273 70 2 0.527 -11.49157008874473 -2.563521654664398 -3.5274427223113376 0 -1 1
1807 582 1 -1.054 -20.45801920119138 5.010273216528947 6.141732623107432 1 0 0
396 111 2 0.527 -11.362838727541595 -7.756242702886413 4.524975325101266 0 0 0
776 238 2 0.527 -20.05011239935829 4.935016568651246 -1.8630516335942726 0 -1 1
973 304 1 -1.054 -15.621194776072183 4.253574284785017 -5.18508968070771 0 0 0
974 304 2 0.527 -15.220644909031602 3.521780499989436 -5.654401877754262 0 0 0
975 304 2 0.527 -14.906301977225558 4.629386199630499 -4.6714046426402165 0 0 0
775 238 1 -1.054 -19.40918055629847 4.459715538879108 -1.334387972858023 0 -1 1
777 238 2 0.527 -18.721452610206683 4.2151710968361975 -1.9535890242429685 0 -1 1
901 280 1 -1.054 -12.08697667567489 -7.4094344696526555 6.161315130008049 0 1 0
432 123 2 0.527 -20.144202547325364 3.631293797302874 -5.234428635634387 0 0 0
225 54 2 0.527 -20.344145343784 5.96971056659557 0.1343444214127878 0 -1 0
1639 526 1 -1.054 -17.29087795433322 5.9406196761781835 0.14836741313116697 1 0 0
1640 526 2 0.527 -16.72678501672905 6.710985894818236 0.08103858024403188 1 0 0
1641 526 2 0.527 -17.897350005313825 6.0222327675713085 -0.5876521457093506 1 0 0
508 149 1 -1.054 -17.73200717358947 3.432941336169442 -3.3298092297683706 0 0 1
510 149 2 0.527 -17.33027073964977 2.971676388182468 -2.5935630523448996 0 0 1
509 149 2 0.527 -16.998152245597343 3.6565483133319585 -3.902200565812721 0 0 1
232 57 1 -1.054 -20.50553520366307 8.338966720432216 -4.906549015004186 0 0 1
518 152 2 0.527 -19.02336011541574 2.650061693426432 -4.0150122929102885 0 0 1
234 57 2 0.527 -20.982458762223462 -8.445339022766296 -5.213740062171379 0 1 1
895 278 1 -1.054 -14.345460065105687 1.9940266923479069 -6.389494404199555 0 0 0
896 278 2 0.527 -13.763433494811972 1.6692423343250251 -7.0764853175476565 0 0 0
1026 321 2 0.527 -12.424539065441586 5.050540997986296 -7.52484451241211 0 0 1
299 79 2 0.527 -17.43004058082495 7.175639666703043 -3.7127221335005816 0 -1 0
224 54 2 0.527 -21.551336613235627 6.858080593699238 -0.07833011439431381 0 -1 0
223 54 1 -1.054 -20.60017056715291 6.8855210308558785 0.024947257032451375 0 -1 0
519 152 2 0.527 -19.42683714771943 1.4914007733581176 -4.901911232692385 0 0 1
298 79 1 -1.054 -17.077367913821295 7.829827237076556 -3.109498343086438 0 -1 0
517 152 1 -1.054 -19.788880285860543 2.174691369531242 -4.3377691562207 0 0 1
300 79 2 0.527 -17.785848201757638 8.464525460594684 -3.0027517304239044 0 -1 0
897 278 2 0.527 -14.11400682879071 1.4799290622046026 -5.615957365213882 0 0 0
421 120 1 -1.054 -14.175240859966646 4.942809746328832 -8.16933752348045 0 -1 0
422 120 2 0.527 -14.574329147762423 4.952005331738988 -7.299361103019001 0 -1 0
104 14 2 0.527 -15.98103114352764 7.543806785261401 -5.702306506681561 0 -1 0
105 14 2 0.527 -16.09122440628777 6.039546825162027 -5.832514557079496 0 -1 0
430 123 1 -1.054 -20.721962443174398 4.326146486414537 -5.549976290164878 0 0 0
157 32 1 -1.054 -17.642877619220755 8.009912928208456 -8.261527370853592 0 0 1
159 32 2 0.527 -17.338666773942148 7.435067769804087 -7.559223622363172 0 0 1
423 120 2 0.527 -14.615499624038987 5.648634758880332 -8.642829789217911 0 -1 0
200 46 2 0.527 -21.52921055986179 2.0093177996747844 -1.060179391356737 0 0 1
2021 653 2 0.527 -15.687038303234846 -8.368358918815462 -0.4561066333045858 1 1 1
2109 682 2 0.527 -13.439608096382479 2.707401364360363 -1.6771366305729307 1 1 0
1800 579 2 0.527 -20.139428556215137 6.541552248588241 -6.8388319299132325 1 0 1
1798 579 1 -1.054 -20.569016841060197 6.6085249433354125 -7.691580655303036 1 0 1
1799 579 2 0.527 -20.2524482741266 5.848705839633764 -8.180131482533788 1 0 1
233 57 2 0.527 -19.582610321895917 8.576225792529561 -4.99631907160513 0 0 1
2101 680 1 -1.054 -18.671724350155063 0.23089452129959653 -0.5531115346135085 1 0 0
676 205 1 -1.054 -11.391958499547458 1.8006784245031078 4.025756770078454 0 0 0
1549 496 1 -1.054 -13.326245614421083 5.763788105523053 -4.706236542386009 0 -1 0
478 139 1 -1.054 -12.450526907756675 -8.690534615656585 -4.128120567939486 0 1 0
2107 682 1 -1.054 -13.761003345860141 2.7369594831583797 -0.775997130760846 1 1 0
535 158 1 -1.054 -18.687642148254756 0.712894370670254 -6.432441141848541 0 0 0
1024 321 1 -1.054 -11.550592739984733 5.281086152461368 -7.209856544668797 0 0 1
480 139 2 0.527 -13.240099124101924 -8.608240041137863 -4.662881729929294 0 1 0
97 12 1 -1.054 -11.804102689774217 0.061965390873899295 -5.518730297333032 0 0 0
1747 562 1 -1.054 -21.94588005561281 7.109789273484372 5.25462357269676 1 0 -1
1017 318 2 0.527 -22.226861539872427 3.6248307760490874 4.591594534151463 0 0 -1
1551 496 2 0.527 -12.607541388695989 5.39597248660173 -5.220389867280834 0 -1 0
1886 608 2 0.527 -21.024739933978065 -4.278363794729173 0.28231929595798455 1 0 0
1885 608 1 -1.054 -20.490881414694034 -4.74675966474735 0.9240383231211737 1 0 0
138 25 2 0.527 -15.601413802536978 -2.043970604008873 2.8018921327970414 0 1 0
1949 629 2 0.527 -17.74411539560814 4.907956533634966 3.2633771353363876 1 -1 0
339 92 2 0.527 -14.460835100953268 2.7474884988389245 4.337987015575139 0 1 0
338 92 2 0.527 -15.96875695424503 2.64689652173654 4.250197764005176 0 1 0
1957 632 1 -1.054 -17.368824339853287 -7.1864798416677775 2.1012265655355957 1 1 1
1959 632 2 0.527 -16.662753828102375 -6.5526223445817156 2.227207988524393 1 1 1
837 258 2 0.527 -14.520075498341953 -7.947550424685703 -8.614506210047876 0 0 1
927 288 2 0.527 -11.41222246015007 -7.629816468795009 -6.256480352079113 0 1 0
987 308 2 0.527 -21.85093442690324 2.0780642537606404 -7.347891894515502 0 0 0
1269 402 2 0.527 -16.912343556785768 -0.9786194847327572 -0.20544148694837894 0 0 0
893 277 2 0.527 -18.92430928551982 5.906560531426889 6.250715708033782 0 0 0
835 258 1 -1.054 -13.915432982629587 -8.45443062690075 -8.07258975218212 0 0 1
344 94 2 0.527 -17.440977106931552 4.389049128022959 6.438135063943307 0 0 0
919 286 1 -1.054 -13.05105281059984 -6.524636218578391 1.9122933570674192 0 0 0
540 159 2 0.527 -21.777259329855713 -7.800577748167016 7.540923959872659 0 0 -1
2087 675 2 0.527 -22.09633373163538 -0.6115120815708242 5.628486787994335 1 1 0
137 25 2 0.527 -17.014548704045175 -2.5781170736399552 2.8989430004288934 0 1 0
136 25 1 -1.054 -16.340801828842974 -2.1235323043811967 3.404512011101078 0 1 0
1958 632 2 0.527 -17.80327073045948 -6.90488092255346 1.2961358381836057 1 1 1
417 118 2 0.527 -20.38994371103936 -4.82016090487839 5.844106099353496 0 1 -1
443 127 2 0.527 -12.609797278887456 8.397645386451435 7.015366582956732 0 0 0
920 286 2 0.527 -13.629012220576817 -5.908000205834954 2.361647686328906 0 0 0
439 126 1 -1.054 -12.19296357993439 -0.6283420199687644 5.703026075356984 0 0 0
959 299 2 0.527 -13.243039124781346 -2.343885158776623 1.4241956787120316 0 0 -1
450 129 2 0.527 -17.010236250950204 1.7815874633924675 -8.292287504316985 0 0 0
441 126 2 0.527 -12.909936953572288 -1.112388669078328 6.112691293697807 0 0 0
461 133 2 0.527 -18.867879297202272 -5.966839837803668 -8.443898113377575 0 1 0
456 131 2 0.527 -14.134475786455104 7.9925398483522425 0.7509130052793545 0 0 0
2012 650 2 0.527 -13.045880673948204 -4.6147632745975455 8.597687975514374 1 0 0
2011 650 1 -1.054 -12.62631779746131 -4.94177768149451 7.801922770034016 1 0 0
462 133 2 0.527 -18.127785530720278 -6.029652204936779 7.792224459326524 0 1 -1
1910 616 2 0.527 -13.730848804776732 -4.317126226526971 -0.11419593984918563 1 0 0
1909 616 1 -1.054 -12.820416545929634 -4.277008571893548 0.17846257026820922 1 0 0
1911 616 2 0.527 -12.707191324714868 -5.059268144830879 0.7183531274980783 1 0 0
333 90 2 0.527 -16.887529170979825 -1.302614865748506 -8.717386869427733 0 0 1
332 90 2 0.527 -16.744093433196877 -0.22062159417691696 7.7887842156625045 0 0 0
236 58 2 0.527 -16.851326688103214 -0.657410759031162 5.162892432386485 0 0 -1
733 224 1 -1.054 -19.50706212013093 0.2508174949970705 2.7834702620394474 0 -1 -1
1232 390 2 0.527 -17.989250708210687 -4.085636636259198 5.988052886894923 1 0 0
2110 683 1 -1.054 -18.806499447295522 -2.675963327993001 1.8004264700988095 1 0 0
2112 683 2 0.527 -19.21611371550596 -3.5131879219427207 1.5825164254258333 1 0 0
2111 683 2 0.527 -19.433156400996488 -2.2465170663113163 2.382722331274687 1 0 0
235 58 1 -1.054 -16.83272510551923 0.1296149647259206 5.707388992713144 0 0 -1
1231 390 1 -1.054 -17.987049171238304 -3.1311245813246833 5.916402272740976 1 0 0
1714 551 1 -1.054 -20.63332767267509 -2.7127762948608183 5.845057646530686 1 1 0
1716 551 2 0.527 -19.68366113811937 -2.6625285720052174 5.736684422707235 1 1 0
1233 390 2 0.527 -17.466314761236262 -2.9504055102982454 5.133855171363573 1 0 0
1715 551 2 0.527 -20.81062509694198 -2.2136417664338035 6.642339632765228 1 1 0
960 299 2 0.527 -13.863590426790509 -1.111670220772102 2.0474295689313156 0 0 -1
1268 402 2 0.527 -17.45810391064957 -2.143239268806263 0.5930998384522201 0 0 0
1749 562 2 0.527 -22.17595350802678 7.365259224866362 6.147947650094826 1 0 -1
2013 650 2 0.527 -12.970968964369385 -4.385867629828296 7.1030676753397035 1 0 0
1669 536 1 -1.054 -16.37898935149798 -3.100938342602918 8.561193308823652 1 1 -1
1670 536 2 0.527 -16.66816185030998 -3.258642731978272 7.662455320392565 1 1 -1
415 118 1 -1.054 -20.442482937114548 -5.772290892824106 5.927293211737851 0 1 -1
145 28 1 -1.054 -13.921868275938499 -2.2373808819183143 7.595648661699501 0 1 0
1055 331 2 0.527 -14.39561648010652 -5.115274168392838 5.437927681749441 0 1 0
1056 331 2 0.527 -15.498053117375335 -6.13379826930896 5.240410342754766 0 1 0
1054 331 1 -1.054 -15.258169535001034 -5.37015911654006 5.765327773733185 0 1 0
416 118 2 0.527 -21.183861864959578 -5.921376110712293 6.514067211424511 0 1 -1
836 258 2 0.527 -13.559715033433102 8.438556115628346 -8.6650963743402 0 -1 1
147 28 2 0.527 -13.60084522893275 -1.7252784153300862 8.337886663132187 0 1 0
146 28 2 0.527 -14.706235493734411 -2.674538841381759 7.927052751538076 0 1 0
460 133 1 -1.054 -18.602910915322 -5.428331188057935 8.36570213167664 0 1 -1
958 299 1 -1.054 -14.026016781963989 -2.0406765336967148 1.8837387378373318 0 0 -1
1027 322 1 -1.054 -13.151578687439935 -4.431825895318561 4.2309787025231 0 0 0
457 132 1 -1.054 -15.96868290913119 -7.310341616098233 7.839841465033922 0 1 -1
459 132 2 0.527 -16.511354915004386 -7.867907867818917 7.282322374449359 0 1 -1
1028 322 2 0.527 -12.197902870042839 -4.513176665722012 4.226521103111384 0 0 0
1512 483 2 0.527 -15.540868089154 -4.323385105308259 2.7605731140056076 0 1 0
458 132 2 0.527 -15.59011762013984 -6.667342327857208 7.240293818952155 0 1 -1
453 130 2 0.527 -19.171457506119268 -5.628151142101843 -0.017056553658123974 0 1 0
1510 483 1 -1.054 -15.597388831923837 -5.14378137507229 2.270688438759846 0 1 0
1511 483 2 0.527 -15.602839269381569 -4.874866569672907 1.352055006167717 0 1 0
440 126 2 0.527 -11.55145790948306 -1.2999700000581722 5.471560781944122 0 0 0
229 56 1 -1.054 -18.326598567292468 -7.747759443197171 6.1665527571041885 0 1 -1
231 56 2 0.527 -19.001404513532258 -7.070989833901158 6.113575661334629 0 1 -1
1029 322 2 0.527 -13.329418255375568 -3.663368448273644 3.688691708070067 0 0 0
1887 608 2 0.527 -21.12478098363725 -5.212138788032458 1.4697327792061774 1 0 0
627 188 2 0.527 -16.2429487464169 8.663089240548997 4.373246398511878 0 -1 0
1636 525 1 -1.054 -20.40207803855788 8.505123765372149 7.620409951197546 1 0 0
1638 525 2 0.527 -19.576762485391306 8.605538340866852 7.146140610209914 1 0 0
625 188 1 -1.054 -15.569501963173993 -8.263113392631173 4.63194659935866 0 0 0
921 286 2 0.527 -12.60930027758968 -6.997200511334534 2.6178077103818076 0 0 0
902 280 2 0.527 -12.409196704252768 -6.586096454201353 6.528073180387217 0 1 0
875 271 2 0.527 -16.238028368741123 6.1833851932577115 6.842649765154055 0 0 -1
329 89 2 0.527 -14.9925335488627 6.562419479345744 3.8712954869826657 0 -1 0
731 223 2 0.527 -18.86119565693764 2.775661645899211 0.3543084795427447 0 0 0
1905 614 2 0.527 -12.666150815217177 0.5822697609204628 7.387569962734824 1 0 0
1903 614 1 -1.054 -12.922754773660701 1.0836382100679742 8.161526633478823 1 0 0
408 115 2 0.527 -17.594522036103022 6.987504772394853 3.2861051619891946 0 0 0
998 312 2 0.527 -12.487958756966874 5.899806710574461 -1.3206388388640793 0 0 0
1418 452 2 0.527 -22.392337317690544 -8.382382558799465 2.7573837574715565 1 1 0
407 115 2 0.527 -17.211850406843105 6.047512045866267 2.162781281447309 0 0 0
2022 653 2 0.527 -16.204371241906845 -8.484425973509618 0.9619072788058975 1 1 1
521 153 2 0.527 -21.580497843377632 -0.5935277605869178 -1.7718276884711583 0 1 1
714 217 2 0.527 -14.57344661857908 3.798092968582793 7.874628547723264 0 1 0
874 271 1 -1.054 -15.34703511736686 6.175497143484771 7.192245511368956 0 0 -1
894 277 2 0.527 -18.249776515524097 6.676955031121629 7.365770963338418 0 0 0
876 271 2 0.527 -14.842795173823681 6.706781739126669 6.576060558281446 0 0 -1
925 288 1 -1.054 -11.420426929576863 -7.536796114979593 -7.209114517996517 0 1 0
565 168 1 -1.054 -13.377757448637583 4.258254649482598 4.457371684199584 0 0 0
515 151 2 0.527 -22.05667224944503 -7.7837440928052635 -3.3555899012695605 0 -1 1
986 308 2 0.527 -21.948651300601004 3.5800773784386024 -7.185712768166255 0 0 0
455 131 2 0.527 -13.791279693754648 7.552263656490256 2.1581285488948847 0 0 0
2084 674 2 0.527 -19.228565492255665 1.1750008516771704 5.925358912930129 1 1 0
735 224 2 0.527 -20.44786084197073 0.23961483223726887 2.6076573252398223 0 -1 -1
331 90 1 -1.054 -17.16509659506258 -0.41114142999651726 8.627039033988675 0 0 0
2119 686 1 -1.054 -18.648642092989203 8.55926963796213 3.666278148460659 1 -1 0
1888 609 1 -1.054 -19.760392503366656 4.316743400790658 8.705608606155218 1 0 -1
734 224 2 0.527 -19.18423702660189 1.0196141409108321 2.3134095505574983 0 -1 -1
2085 674 2 0.527 -19.974890603155373 0.6115466360460164 4.7348297882595975 1 1 0
237 58 2 0.527 -16.044055579522293 0.5952578092808896 5.4292788800336655 0 0 -1
2083 674 1 -1.054 -20.11143286197396 1.015959743243961 5.5915890072004615 1 1 0
1890 609 2 0.527 -20.478310105850685 3.7607149851945145 -8.547000457582213 1 0 0
1948 629 1 -1.054 -18.189091460450395 4.126777379003736 3.5919591699605498 1 -1 0
2061 666 2 0.527 -21.13189920982517 -7.277839872510191 4.641421971595763 1 1 0
1637 525 2 0.527 -20.20573297140213 7.874125206397489 8.312882053438036 1 0 0
444 127 2 0.527 -11.971719196217567 7.04966336562517 7.275467335470134 0 0 0
442 127 1 -1.054 -12.689734201647484 7.614851905071495 7.56041380689763 0 0 0
2059 666 1 -1.054 -21.1271662513785 -8.070284173084573 4.10454047134691 1 1 0
230 56 2 0.527 -18.137053571264293 -7.969536515756095 5.254897247386383 0 1 -1
1765 568 1 -1.054 -22.161980400495274 -0.4586338565069781 1.7817541272987008 1 0 -1
713 217 2 0.527 -15.280801903089522 3.1878675828615606 6.683361929766278 0 1 0
1906 615 1 -1.054 -13.586634758601983 0.7894265754557583 1.8308681604938393 1 0 0
1076 338 2 0.527 -11.836697732446757 -5.457618147982756 -5.909996251318699 0 1 0
330 89 2 0.527 -13.577139265314415 6.112896283773432 4.165017790577542 0 -1 0
997 312 1 -1.054 -12.143177418056862 6.083155542660128 -2.194554502051762 0 0 0
1950 629 2 0.527 -18.74049766038612 3.8405563615753433 2.863790841485921 1 -1 0
345 94 2 0.527 -17.817814688786186 3.163507184822718 5.6331977109022535 0 0 0
566 168 2 0.527 -12.546968418453213 3.7900894768221747 4.37508903900123 0 0 0
1550 496 2 0.527 -13.004289023363604 5.757460739637098 -3.8048345327883544 0 -1 0
1808 582 2 0.527 -20.82086227823402 4.295282348581683 5.618901321809384 1 0 0
406 115 1 -1.054 -16.935986471686082 6.341424272720424 3.030962950336752 0 0 0
343 94 1 -1.054 -17.47431714901949 3.4335701924645416 6.484840931253604 0 0 0
626 188 2 0.527 -14.74686829167834 -8.745878606646839 4.552118859513515 0 0 0
892 277 1 -1.054 -18.08218609472219 6.279529852435418 6.511256267954044 0 0 0
1809 582 2 0.527 -20.30631164807003 4.623866732425634 7.004232156302814 1 0 0
454 131 1 -1.054 -13.442061692581317 7.58018404676138 1.2673496449224526 0 0 0
328 89 1 -1.054 -14.173784638973702 6.8536002931298174 4.272573943829983 0 -1 0
305 81 2 0.527 -22.39932506363649 -6.342009286092566 2.7499096748357363 0 0 0
2120 686 2 0.527 -18.573979311269536 -8.168793648424257 3.190477949332438 1 0 0
1548 495 2 0.527 -12.071198487598588 -8.52492269256531 -0.04588155658867876 0 0 0
2103 680 2 0.527 -18.67329527219625 0.7649387803381718 0.24126006594389082 1 0 0
730 223 1 -1.054 -18.81505412366439 2.382253987768024 1.225705842806514 0 0 0
712 217 1 -1.054 -14.420091043426932 3.2642527620315036 7.095060222128042 0 1 0
1907 615 2 0.527 -14.246740669485241 1.0854397513822533 2.4576244437866723 1 0 0
703 214 1 -1.054 -12.605607520416738 5.089277673413697 0.43591739352381254 0 1 0
567 168 2 0.527 -13.619439971733591 4.15816994011379 5.3781313769684775 0 0 0
2108 682 2 0.527 -13.212082057268072 3.3932258538331865 -0.34681076909361863 1 1 0
1748 562 2 0.527 -21.51735044950663 6.259334363438905 5.351064974084139 1 0 -1
705 214 2 0.527 -12.698199966802218 5.958012622473664 0.8270161044424036 0 1 0
2020 653 1 -1.054 -15.83904200778698 8.55284679685107 0.24466912015468623 1 0 1
2060 666 2 0.527 -21.392514117531665 -8.767827848138728 4.703914268852596 1 1 0
704 214 2 0.527 -11.66632704091555 4.9087470399392 0.471962988093134 0 1 0
210 49 2 0.527 -12.224973060743487 5.200392572400675 7.583567638931369 0 0 -1
1908 615 2 0.527 -13.427378458917378 1.5505121737078138 1.2726421406347121 1 0 0
1015 318 1 -1.054 -21.408783086346705 3.2972527481252776 4.217960641555125 0 0 -1
2121 686 2 0.527 -19.58870344493969 8.44773899455994 3.807644026512069 1 -1 0
732 223 2 0.527 -17.879648475644778 2.352583786898901 1.426393078084887 0 0 0
337 92 1 -1.054 -15.17769128555079 2.113339802373666 4.325676669060902 0 1 0
926 288 2 0.527 -12.341457199074469 -7.631896078235496 -7.4516058980691025 0 1 0
434 124 2 0.527 -21.963839686602185 6.134164705071655 -3.022419828113497 0 -1 0
304 81 1 -1.054 -22.217714251514682 -5.429757233898874 2.9758364137281976 0 0 0
208 49 1 -1.054 -11.396338485258084 5.087615991497293 7.117944642942449 0 0 -1
98 12 2 0.527 -11.400028334882096 0.3470752311920613 -6.338273834894224 0 0 0
492 143 2 0.527 -11.594466614625755 0.0701990507749457 0.2563464058008673 0 0 1
170 36 2 0.527 -22.362698108728242 -0.9844269894340076 -6.8670108405743875 0 0 0
150 29 2 0.527 -22.192893907393646 2.4625641773191926 2.4172894345143003 0 -1 0
903 280 2 0.527 -11.24162777259713 -7.547813536381332 6.58839026661639 0 1 0
782 240 2 0.527 -11.268149550095146 -5.84587130921469 -3.5865535905634527 0 0 0
169 36 1 -1.054 -22.431884085020837 -1.9382219137070908 -6.825538425735997 0 0 0
24 1 3 -0.01 -1.5808398695753354 -2.5064095202732126 -2.380042185160141 0 0 0
25 1 5 0.09 -2.1100976641255826 -2.143101027907333 -3.40119253780556 0 0 0
1152 363 2 0.527 -8.625078115869448 -5.379955168546719 -4.171703209667974 0 0 0
1150 363 1 -1.054 -8.094488713820324 -4.748986912289479 -3.6853338260287707 0 0 0
1151 363 2 0.527 -7.413079853645911 -4.482338113958357 -4.302393711017277 0 0 0
667 202 1 -1.054 -10.526944500825875 -2.6917119955819544 4.742081561469115 0 1 0
1021 320 1 -1.054 -5.590844737647675 -7.123917093550644 -4.602309736691396 0 1 0
1023 320 2 0.527 -5.621173559444273 -7.808716994005567 -3.93420626165406 0 1 0
1022 320 2 0.527 -6.509259052551869 -6.94046405508806 -4.799800575854757 0 1 0
512 150 2 0.527 -5.411464280516906 -0.9054284605125273 -0.3086981672936826 0 0 0
849 262 2 0.527 -4.1744212647894265 -6.200017237471313 -7.845095040563001 0 0 0
1430 456 2 0.527 -5.085909274597977 -2.464445443335367 -4.76090162587996 0 0 0
1429 456 1 -1.054 -4.8649804253012405 -1.5493882752447545 -4.934360596912963 0 0 0
511 150 1 -1.054 -5.263833587577814 0.008901345045723374 -0.5504348813967841 0 0 0
848 262 2 0.527 -5.365251984581519 -5.841366111787218 -8.708253558553222 0 0 0
1011 316 2 0.527 -4.882709132532337 -4.612716140161888 -5.871701592723428 0 0 0
1010 316 2 0.527 -5.56609173022682 -5.085233562073101 -4.606172901959554 0 0 0