LAMMPS data file via write_data, version 20 Nov 2019, timestep = 10000

1053 atoms
7 atom types
723 bonds
6 bond types
447 angles
9 angle types
74 dihedrals
14 dihedral types

-2.0074217107801228e+01 2.0074217107801228e+01 xlo xhi
-8.1231461253225756e+00 8.1231461253225756e+00 ylo yhi
-8.1231461253225756e+00 8.1231461253225756e+00 zlo zhi

Masses

1 15.9994
2 1.008
3 12.011
4 15.9994
5 1.008
6 15.9994
7 1.008

Pair Coeffs # lj/cut/tip4p/long

1 0.185199 3.1589
2 0 0
3 0.056 3.58141
4 0.1 2.93997
5 0.035 2.38761
6 0.192 3.14487
7 0.046 0.40001

Bond Coeffs # harmonic

1 0 0.9572
2 222.35 1.53
3 308.79 1.1111
4 359.76 1.1415
5 427.715 1.142
6 544.635 0.96

Angle Coeffs # charmm

1 0 104.52 0 0
2 50 109 0 0
3 26.5 110.1 22.53 2.179
4 45 111.5 0 0
5 13.0258 109.4 0 0
6 35.5 109 5.4 1.802
7 55 108.89 0 0
8 75.7 110.1 0 0
9 95 109.7 0 0

Dihedral Coeffs # charmm

1 0.57 1 0 0
2 0.29 2 0 0
3 0.43 3 0 0
4 0.59 1 180 0
5 1.16 2 0 0
6 0.12 1 0 0
7 0.42 2 0 0
8 0.29 3 0 0
9 2.87 1 180 0
10 0.03 2 0 0
11 0.23 3 0 0
12 1.36 1 180 0
13 0.16 2 0 0
14 1.01 3 0 0

Atoms # full

758 232 2 5.2700000000000002e-01 -1.5972452158984490e+01 -2.4780101826824747e+00 -1.4272546125642638e+00 0 0 1
230 56 2 5.2700000000000002e-01 -1.3715518345088896e+01 1.9189397160649868e-01 -1.7646698759894361e+00 0 0 1
229 56 1 -1.0540000000000000e+00 -1.3035856017681091e+01 -2.5287613713451584e-01 -2.2710967089711591e+00 0 0 1
231 56 2 5.2700000000000002e-01 -1.3475257891539314e+01 -1.0178249467237102e+00 -2.6425936823255380e+00 0 0 1
759 232 2 5.2700000000000002e-01 -1.5482026610338822e+01 -2.2124817350460209e+00 -1.9820028680095803e-02 0 0 1
757 232 1 -1.0540000000000000e+00 -1.5179108956594234e+01 -2.4656081618066672e+00 -8.9182918889440010e-01 0 0 1
416 118 2 5.2700000000000002e-01 -1.2837888405422699e+01 9.1934669564991722e-01 -5.0093870558631242e+00 0 1 1
220 53 1 -1.0540000000000000e+00 -1.7452798945087295e+01 -3.4140656134178542e+00 -3.9564653191305919e+00 0 1 0
234 57 2 5.2700000000000002e-01 -1.5973881007440294e+01 -4.4862425329027600e+00 -6.7884360906277417e+00 0 1 1
232 57 1 -1.0540000000000000e+00 -1.5794506004938974e+01 -4.8071468560679644e+00 -5.9046506326952644e+00 0 1 1
233 57 2 5.2700000000000002e-01 -1.4845540989392539e+01 -4.7271264540304463e+00 -5.8082778563308377e+00 0 1 1
320 86 2 5.2700000000000002e-01 -1.2979922622116645e+01 -6.0487847694998012e+00 -4.5085838223085020e+00 0 1 1
222 53 2 5.2700000000000002e-01 -1.7431830690112513e+01 -2.4780183111830958e+00 -4.1554820727851096e+00 0 1 0
319 86 1 -1.0540000000000000e+00 -1.2907500192904390e+01 -5.2457311303810652e+00 -3.9927429498024267e+00 0 1 1
321 86 2 5.2700000000000002e-01 -1.3167663136389953e+01 -5.5041631282127508e+00 -3.1085709155795014e+00 0 1 1
1288 409 1 -1.0540000000000000e+00 -1.5873459266297722e+01 7.4758889894165872e+00 -1.4982084095226860e+00 1 -1 1
317 85 2 5.2700000000000002e-01 -1.7630561815358291e+01 -7.8583202106253145e+00 -5.5154547870598014e+00 0 0 1
221 53 2 5.2700000000000002e-01 -1.6684733487748908e+01 -3.7714303514945247e+00 -4.4021037840368082e+00 0 1 0
582 173 2 5.2700000000000002e-01 -1.2505635096040599e+01 -3.5307875742935426e+00 -3.7440862934515335e+00 0 0 0
384 107 2 5.2700000000000002e-01 -1.1766963768057252e+01 -1.9437324275256227e+00 -9.1585455665635251e-01 0 0 0
110 16 2 5.2700000000000002e-01 -1.8384120772884632e+01 -2.5492832719083811e+00 -2.1751065017500588e+00 0 1 0
382 107 1 -1.0540000000000000e+00 -1.2224865940349126e+01 -2.5210731215159878e+00 -3.0492574355438240e-01 0 0 0
316 85 1 -1.0540000000000000e+00 -1.6943263765865140e+01 -7.5837992791352473e+00 -4.9084214694858472e+00 0 0 1
595 178 1 -1.0540000000000000e+00 -1.3975681617425487e+01 -2.0936168529740620e+00 -6.1947193478153713e+00 0 1 1
318 85 2 5.2700000000000002e-01 -1.6716266710309938e+01 -6.6969517328092509e+00 -5.1880744845033773e+00 0 0 1
645 194 2 5.2700000000000002e-01 -1.1373933329434282e+01 -3.0289455827966485e+00 -7.4748242716116380e+00 0 0 1
1290 409 2 5.2700000000000002e-01 -1.6477529659161213e+01 -8.0521879175287125e+00 -1.3098073122426994e+00 1 0 1
581 173 2 5.2700000000000002e-01 -1.2632441311317191e+01 -2.1841570216891437e+00 -4.4240874871520166e+00 0 0 0
580 173 1 -1.0540000000000000e+00 -1.2262496350092412e+01 -2.6097133576318896e+00 -3.6506057815836357e+00 0 0 0
826 255 1 -1.0540000000000000e+00 -1.1933056380908202e+01 -1.4464041063833299e-01 1.5739294049519437e+00 0 0 0
109 16 1 -1.0540000000000000e+00 -1.8577263884062230e+01 -2.3421770680247187e+00 -1.2607571959680159e+00 0 1 0
1463 467 2 5.2700000000000002e-01 -1.8203829673450635e+01 -7.7131179462272978e+00 6.3539772176373877e+00 1 0 0
1289 409 2 5.2700000000000002e-01 -1.5009286631079814e+01 7.8871836523307177e+00 -1.5146043819004538e+00 1 -1 1
1307 415 2 5.2700000000000002e-01 -1.0718569446467146e+01 -4.2437510430855347e+00 -4.1016038366905150e+00 1 1 1
1306 415 1 -1.0540000000000000e+00 -1.0142490282462649e+01 -4.4574441738911021e+00 -4.8355640708896441e+00 1 1 1
262 67 1 -1.0540000000000000e+00 -1.9042871192631850e+01 8.0013074428113153e+00 -6.6459884757838177e+00 0 0 1
264 67 2 5.2700000000000002e-01 -1.9584285781363477e+01 -7.4712674679460873e+00 -6.4895846908873054e+00 0 1 1
150 29 2 5.2700000000000002e-01 -1.9307275055902739e+01 -7.5772308003260633e+00 1.2653280882878803e+00 0 1 1
399 112 2 5.2700000000000002e-01 -1.8517512790146281e+01 -7.4363914772590762e+00 -3.5947108985797547e+00 0 0 0
827 255 2 5.2700000000000002e-01 -1.1179367523748162e+01 2.3280593919605330e-01 1.1203705226975753e+00 0 0 0
495 144 2 5.2700000000000002e-01 -1.7835752381411982e+01 -6.6111842757656971e+00 -1.8613960177268316e+00 0 0 0
329 89 2 5.2700000000000002e-01 -1.0856252832601598e+01 -3.6542869742647648e+00 -1.0455159561241940e+00 0 0 1
415 118 1 -1.0540000000000000e+00 -1.3549360288832336e+01 7.1501335469663196e-01 -5.6162509787243176e+00 0 1 1
201 46 2 5.2700000000000002e-01 -1.5357337156914092e+01 7.8483478001424309e+00 -5.5128417002431078e+00 0 0 0
305 81 2 5.2700000000000002e-01 -1.3651974214620804e+01 2.3777225865230722e+00 2.5176606351081272e+00 0 0 0
807 248 2 5.2700000000000002e-01 -1.0078704172298623e+01 8.5016456726188139e-01 6.9072446671860384e+00 0 0 -1
417 118 2 5.2700000000000002e-01 -1.3247261388943434e+01 1.0482930331645264e+00 -6.4611725187727318e+00 0 1 1
200 46 2 5.2700000000000002e-01 -1.4544714611020082e+01 7.6156973688076590e+00 -6.7687914047603375e+00 0 0 0
199 46 1 -1.0540000000000000e+00 -1.4734628156539820e+01 7.2391487267980867e+00 -5.9095031659249226e+00 0 0 0
235 58 1 -1.0540000000000000e+00 -1.6810798906539461e+01 -7.8093594327499183e-01 -4.6322044289325790e+00 0 -1 0
304 81 1 -1.0540000000000000e+00 -1.3967906369642758e+01 1.5216756692245905e+00 2.8068020554560658e+00 0 0 0
111 16 2 5.2700000000000002e-01 -1.9285999551928629e+01 -1.7003063230519180e+00 -1.3046226906877276e+00 0 1 0
643 194 1 -1.0540000000000000e+00 -1.2016197366615156e+01 -3.5586404134089307e+00 -7.9472121943614642e+00 0 0 1
644 194 2 5.2700000000000002e-01 -1.2859576059977421e+01 -3.1584773596727098e+00 -7.7355302365742471e+00 0 0 1
398 112 2 5.2700000000000002e-01 -1.9565225045990630e+01 -8.0948752461571605e+00 -2.7225951079513742e+00 0 0 0
740 226 2 5.2700000000000002e-01 -1.5997145152194314e+01 -6.6417535467317803e+00 -7.8642294605836787e+00 0 1 0
788 242 2 5.2700000000000002e-01 -1.8549305345554782e+01 -3.5142895852156455e+00 -5.7669884240178186e+00 0 0 0
597 178 2 5.2700000000000002e-01 -1.3985949243358593e+01 -1.2154210091071320e+00 -5.8140628757253321e+00 0 1 1
616 185 1 -1.0540000000000000e+00 -1.0892923675273561e+01 -5.9491252563811532e+00 -8.0678785750475317e+00 0 0 0
739 226 1 -1.0540000000000000e+00 -1.5166303797300044e+01 -7.0645000937479399e+00 -8.0815204595082140e+00 0 1 0
699 212 2 5.2700000000000002e-01 -1.2516574525516338e+01 8.0788419036390184e+00 -2.9400089954849848e+00 0 -1 0
697 212 1 -1.0540000000000000e+00 -1.3091713533070635e+01 7.9987207166706487e+00 -2.1790717212307715e+00 0 -1 0
698 212 2 5.2700000000000002e-01 -1.2925240895261748e+01 -7.4555546715211936e+00 -1.6679667044986299e+00 0 0 0
347 95 2 5.2700000000000002e-01 -1.3009077483555142e+01 4.7105361300095421e+00 2.3162311677464071e+00 0 0 0
783 240 2 5.2700000000000002e-01 -1.4074382227911585e+01 6.9983312832646920e+00 1.5531039082439015e+00 0 -1 0
617 185 2 5.2700000000000002e-01 -1.1397535437445672e+01 -5.1369848448063102e+00 -8.1128949901333378e+00 0 0 0
782 240 2 5.2700000000000002e-01 -1.5247199156901566e+01 6.0827879446541555e+00 1.2735194639185554e+00 0 -1 0
683 207 2 5.2700000000000002e-01 -1.0941419755086727e+01 4.1993897864804826e+00 3.1107073095434927e+00 0 0 -1
781 240 1 -1.0540000000000000e+00 -1.4308235741162601e+01 6.0748894506813649e+00 1.4592906417943414e+00 0 -1 0
806 248 2 5.2700000000000002e-01 -1.0325147387348231e+01 1.9603697285222133e-01 5.5643828232039514e+00 0 0 -1
250 63 1 -1.0540000000000000e+00 -1.9945135125161528e+01 5.3987817832964193e+00 1.1899878306253466e+00 0 0 0
661 200 1 -1.0540000000000000e+00 -1.0562672096734870e+01 -5.6214947137076425e+00 5.3076591987474853e+00 0 1 -1
684 207 2 5.2700000000000002e-01 -1.0906075762237107e+01 3.3065090701781816e+00 4.3327591440150748e+00 0 0 -1
1466 468 2 5.2700000000000002e-01 -1.9823170783878023e+01 1.3673051245058137e+00 7.4356272841106730e+00 1 0 0
1401 446 2 5.2700000000000002e-01 -1.6805584429671960e+01 6.3542300929755520e+00 -6.4098637426121119e-01 1 -1 1
1462 467 1 -1.0540000000000000e+00 -1.8939378473517230e+01 -7.2042242193574602e+00 6.0130600306111788e+00 1 0 0
371 103 2 5.2700000000000002e-01 -1.0746613515503611e+01 1.3351839250876232e+00 -6.8045228880819959e+00 0 1 1
299 79 2 5.2700000000000002e-01 -1.8196036951322466e+01 -9.2626226615956320e-01 6.2626966771331443e+00 0 0 -1
368 102 2 5.2700000000000002e-01 -1.9881181082719017e+01 5.8199141370435683e+00 -4.0056073223193094e+00 0 -1 0
1294 411 1 -1.0540000000000000e+00 -1.6742874554860833e+01 1.5129097969128829e+00 -7.2648611670657868e+00 1 0 1
1295 411 2 5.2700000000000002e-01 -1.6188008256751914e+01 1.5612131101021092e+00 -8.0433342454729910e+00 1 0 1
682 207 1 -1.0540000000000000e+00 -1.0358066525382041e+01 3.8834271407972096e+00 3.8007052662635026e+00 0 0 -1
1554 497 2 5.2700000000000002e-01 -1.2711634675320258e+01 1.8384206739656346e+00 -8.2310998588765472e-01 1 0 1
1296 411 2 5.2700000000000002e-01 -1.7281457341856449e+01 2.3032120931586260e+00 -7.3046234975529192e+00 1 0 1
87 8 2 5.2700000000000002e-01 -1.6520214398883610e+01 -3.9591427299661319e-01 -7.1876016852063866e+00 0 0 1
263 67 2 5.2700000000000002e-01 -1.9391902744951029e+01 7.3394888740201125e+00 -6.0489913501016703e+00 0 0 1
1478 472 2 5.2700000000000002e-01 -1.7273065064728993e+01 4.6133452472217122e+00 -7.3546047938386163e+00 1 0 1
734 224 2 5.2700000000000002e-01 -1.2007428568207233e+01 6.9889845378904294e+00 6.5703522757855826e+00 0 0 0
794 244 2 5.2700000000000002e-01 -1.6065064968741865e+01 2.2174687528203361e+00 -3.7103712352575329e+00 0 0 1
355 98 1 -1.0540000000000000e+00 -1.2015724765426723e+01 4.4937639688899953e+00 -4.2604388622553255e+00 0 0 0
356 98 2 5.2700000000000002e-01 -1.2784347698399547e+01 4.2085016738190273e+00 -3.7664023653638807e+00 0 0 0
357 98 2 5.2700000000000002e-01 -1.1340082086950090e+01 3.8506711262066116e+00 -4.0455705596715275e+00 0 0 0
1283 407 2 5.2700000000000002e-01 -1.7813482670621596e+01 3.5413011738268505e+00 -5.2359321374578194e+00 1 0 1
1282 407 1 -1.0540000000000000e+00 -1.7446287279448875e+01 3.4023439651364296e+00 -4.3629546101352421e+00 1 0 1
1284 407 2 5.2700000000000002e-01 -1.7903034418710075e+01 4.0337942476221169e+00 -3.8071821696424166e+00 1 0 1
793 244 1 -1.0540000000000000e+00 -1.5518905864614730e+01 1.4318363693963168e+00 -3.7372626053380351e+00 0 0 1
795 244 2 5.2700000000000002e-01 -1.5113205445790125e+01 1.4511475663699454e+00 -4.6040183739659764e+00 0 0 1
438 125 2 5.2700000000000002e-01 -1.2703550465734015e+01 4.3932397148711502e+00 -5.9629007860252825e+00 0 0 1
292 77 1 -1.0540000000000000e+00 -1.1066202938459487e+01 7.0752365295983619e+00 -7.8497369473025236e+00 0 0 0
1552 497 1 -1.0540000000000000e+00 -1.2203745930538133e+01 2.6081197820196618e+00 -5.6651203107137782e-01 1 0 1
569 169 2 5.2700000000000002e-01 -1.1111869105087559e+01 1.8681905528699581e+00 -2.4868980847212452e+00 0 0 1
1479 472 2 5.2700000000000002e-01 -1.8781951146051949e+01 4.7322651109458942e+00 -7.3862301951667888e+00 1 0 1
1477 472 1 -1.0540000000000000e+00 -1.8073347063810690e+01 4.1704179399839933e+00 -7.0724842736506464e+00 1 0 1
568 169 1 -1.0540000000000000e+00 -1.0974524242516265e+01 2.1629577725309268e+00 -3.3871650442208932e+00 0 0 1
237 58 2 5.2700000000000002e-01 -1.6434168790327721e+01 -4.3611379866444899e-01 -5.4418207583744485e+00 0 -1 0
236 58 2 5.2700000000000002e-01 -1.6551160660549513e+01 -1.5136854415862189e-01 -3.9595493504506880e+00 0 -1 0
1033 324 1 -1.0540000000000000e+00 -1.9519814970024164e+01 5.2112852837603540e+00 -2.3256353958105231e+00 1 0 1
293 77 2 5.2700000000000002e-01 -1.1413328368784059e+01 7.9532182239266955e+00 -8.0074832439660248e+00 0 0 0
249 62 2 5.2700000000000002e-01 -1.5029245110536412e+01 5.5019788137417240e+00 -4.2017650443888792e+00 0 -1 1
570 169 2 5.2700000000000002e-01 -1.0168438427077231e+01 1.7262322316140786e+00 -3.6623452641071905e+00 0 0 1
247 62 1 -1.0540000000000000e+00 -1.4998256706777802e+01 5.3352392711840047e+00 -3.2597089492276021e+00 0 -1 1
408 115 2 5.2700000000000002e-01 -1.5576920822730511e+01 1.1278427304032252e+00 -1.9109592741720238e+00 0 0 1
449 129 2 5.2700000000000002e-01 -1.3043284883238350e+01 7.2859802581602100e+00 -5.2047482265401950e+00 0 0 0
448 129 1 -1.0540000000000000e+00 -1.2191931108769424e+01 7.5478315705552870e+00 -4.8542361848679230e+00 0 0 0
450 129 2 5.2700000000000002e-01 -1.1611438171568619e+01 6.8155937310975165e+00 -5.0618063925326631e+00 0 0 0
1034 324 2 5.2700000000000002e-01 -1.8897722765912757e+01 5.3772587674848555e+00 -1.6173391820050966e+00 1 0 1
406 115 1 -1.0540000000000000e+00 -1.5231091298477573e+01 9.9371361440115180e-01 -1.0285516519192210e+00 0 0 1
436 125 1 -1.0540000000000000e+00 -1.3097146048902227e+01 4.3161794277926848e+00 -6.8320245676176921e+00 0 0 1
277 72 1 -1.0540000000000000e+00 -1.9727234686668687e+01 6.1174068575042284e+00 7.5932906883758733e+00 0 -1 -1
278 72 2 5.2700000000000002e-01 -1.9476856019827157e+01 6.9055223925134754e+00 8.0753871277568141e+00 0 -1 -1
248 62 2 5.2700000000000002e-01 -1.5184481256343126e+01 6.1845434380865871e+00 -2.8594154618466110e+00 0 -1 1
818 252 2 5.2700000000000002e-01 -1.0379804873743547e+01 -2.3544696542054702e+00 4.5218080271126766e+00 0 1 1
657 198 2 5.2700000000000002e-01 -1.0288991919096299e+01 3.0555794015445361e+00 -8.1205136655994892e-01 0 0 0
270 69 2 5.2700000000000002e-01 -1.6708770900054663e+01 2.9955068470995254e+00 3.5463576854029508e+00 0 1 0
454 131 1 -1.0540000000000000e+00 -1.0850706541101912e+01 6.5197455225826140e+00 -1.0236392154086440e+00 0 0 0
1399 446 1 -1.0540000000000000e+00 -1.7517808562318177e+01 5.8780225169997617e+00 -2.1414548519912824e-01 1 -1 1
423 120 2 5.2700000000000002e-01 -1.3542659791531481e+01 5.5715111284433121e+00 -4.0197700210065079e-04 0 -1 -1
1553 497 2 5.2700000000000002e-01 -1.2706775506092498e+01 3.3502683250165166e+00 -9.0178487961084741e-01 1 0 1
107 15 2 5.2700000000000002e-01 -1.4840240137630513e+01 4.7464551573572678e+00 -7.4739419387398405e+00 0 -1 1
407 115 2 5.2700000000000002e-01 -1.5899296133135474e+01 4.7048549045439181e-01 -5.8587354316030016e-01 0 0 1
456 131 2 5.2700000000000002e-01 -1.1740130834548978e+01 6.2493489800760180e+00 -1.2517559106807692e+00 0 0 0
421 120 1 -1.0540000000000000e+00 -1.3177925209362762e+01 5.1285086864809397e+00 -7.6652858455033979e-01 0 -1 -1
85 8 1 -1.0540000000000000e+00 -1.6400497233977219e+01 -1.3213897901263714e+00 -7.4006618946030942e+00 0 0 1
86 8 2 5.2700000000000002e-01 -1.7015009693407432e+01 -1.4843588167066333e+00 -8.1162352528603225e+00 0 0 1
378 105 2 5.2700000000000002e-01 -1.0289626775392856e+01 -7.8137277097234881e+00 -5.4092157813388795e+00 0 0 0
1242 393 2 5.2700000000000002e-01 -1.9011182467778980e+01 -4.6449929130265133e-01 -5.1002701154977128e+00 1 0 1
163 34 1 -1.0540000000000000e+00 -1.3969747384144195e+01 4.7711416123588037e+00 5.4986076276935982e+00 0 0 0
383 107 2 5.2700000000000002e-01 -1.3098214221053219e+01 -2.6257729276284207e+00 -6.8245436369845969e-01 0 0 0
309 82 2 5.2700000000000002e-01 -1.3554672817623855e+01 -5.4372496546905875e+00 -4.9164299223066621e-01 0 1 0
158 32 2 5.2700000000000002e-01 -1.1851446075782084e+01 -1.1965996713309321e+00 6.4263543461200516e+00 0 1 -1
789 242 2 5.2700000000000002e-01 -1.9537010298220604e+01 -2.9374614947751416e+00 -6.7587530929603554e+00 0 0 0
534 157 2 5.2700000000000002e-01 -1.4941863520683693e+01 -4.1655921777148421e+00 -2.6601349689040532e-01 0 1 1
252 63 2 5.2700000000000002e-01 -1.9918322291445179e+01 5.8323412279516678e+00 2.0429477553174511e+00 0 0 0
787 242 1 -1.0540000000000000e+00 -1.8910079645971337e+01 -3.6514439471863387e+00 -6.6429231710350614e+00 0 0 0
149 29 2 5.2700000000000002e-01 -1.9921488224994995e+01 7.4974676362911872e+00 5.2911970936141195e-01 0 0 1
1385 441 2 5.2700000000000002e-01 -1.8995156788938282e+01 -6.3587079160958080e+00 3.6071464969433080e+00 1 1 0
1511 483 2 5.2700000000000002e-01 -1.7975375059158104e+01 -4.5938777423604922e+00 -7.9882401036062269e+00 1 1 1
1510 483 1 -1.0540000000000000e+00 -1.7470855088720210e+01 -5.3576885627781303e+00 7.9782596350201391e+00 1 1 0
635 191 2 5.2700000000000002e-01 -1.0658395223936257e+01 6.9579609891343672e+00 2.2410872356200127e+00 0 0 1
1327 422 1 -1.0540000000000000e+00 -1.6738417937615075e+01 -2.7886307357674189e+00 4.3818088406643252e+00 1 0 -2
1328 422 2 5.2700000000000002e-01 -1.6131574099476619e+01 -2.0677809164006371e+00 4.2134430500523496e+00 1 0 -2
1329 422 2 5.2700000000000002e-01 -1.7049922005521587e+01 -3.0476240505070304e+00 3.5145608606269416e+00 1 0 -2
596 178 2 5.2700000000000002e-01 -1.4756700077333115e+01 -2.1248384935807199e+00 -6.7472264343731014e+00 0 1 1
307 82 1 -1.0540000000000000e+00 -1.2764623042411445e+01 -5.7697401631798062e+00 -9.1766969995081737e-01 0 1 0
1386 441 2 5.2700000000000002e-01 -1.7505515967084573e+01 -6.5242223171569211e+00 3.3939457384341232e+00 1 1 0
157 32 1 -1.0540000000000000e+00 -1.2496850673720497e+01 -1.9028313480979424e+00 6.3960459365608120e+00 0 1 -1
164 34 2 5.2700000000000002e-01 -1.3298322277924438e+01 4.1086029958967600e+00 5.3359420586077153e+00 0 0 0
1486 475 1 -1.0540000000000000e+00 -1.6372755734222821e+01 3.3175722797625262e+00 3.7593749133715271e-01 1 -1 1
533 157 2 5.2700000000000002e-01 -1.5864270757909498e+01 -5.3658539893959789e+00 -2.4536844535672131e-01 0 1 1
532 157 1 -1.0540000000000000e+00 -1.5060496315535634e+01 -5.0221087891939193e+00 1.4452067748022301e-01 0 1 1
1512 483 2 5.2700000000000002e-01 -1.6778755299607013e+01 -4.9980294849440767e+00 7.4233971655160520e+00 1 1 0
800 246 2 5.2700000000000002e-01 -1.5870191834394815e+01 -3.1815676413026859e+00 5.9938370433282220e+00 0 0 -1
493 144 1 -1.0540000000000000e+00 -1.7274035363300687e+01 -6.5151850618261671e+00 -1.0923130983544960e+00 0 0 0
801 246 2 5.2700000000000002e-01 -1.4830547741314678e+01 -4.2820304017012809e+00 5.9970640254515164e+00 0 0 -1
799 246 1 -1.0540000000000000e+00 -1.5466582757268764e+01 -3.8399369295869965e+00 6.5594179129080317e+00 0 0 -1
101 13 2 5.2700000000000002e-01 -1.9107389387780888e+01 -2.2183119538730551e+00 2.8613020207131488e+00 0 0 0
102 13 2 5.2700000000000002e-01 -1.9499041203703428e+01 -3.3825710511319702e+00 1.9764262331250979e+00 0 0 0
100 13 1 -1.0540000000000000e+00 -1.9144121186391395e+01 -3.1745858981747421e+00 2.8407211488734436e+00 0 0 0
494 144 2 5.2700000000000002e-01 -1.7883312404108366e+01 -6.4441719771182377e+00 -3.5748762946058754e-01 0 0 0
719 219 2 5.2700000000000002e-01 -1.5492134365967097e+01 -1.5029563820674596e+00 2.1523819304912060e+00 0 0 -1
718 219 1 -1.0540000000000000e+00 -1.4813506886237121e+01 -2.1760768910564074e+00 2.1013702512599810e+00 0 0 -1
828 255 2 5.2700000000000002e-01 -1.2237413661054756e+01 -8.4256254337828729e-01 9.9384031479436352e-01 0 0 0
720 219 2 5.2700000000000002e-01 -1.4364824442589658e+01 -2.1289677191327048e+00 2.9455831137541271e+00 0 0 -1
1542 493 2 5.2700000000000002e-01 -1.7753514814895293e+01 -2.0996189637407969e-01 9.2466169009831489e-01 1 1 0
1540 493 1 -1.0540000000000000e+00 -1.7144939254374112e+01 -7.2625949864966621e-01 3.9617064285065950e-01 1 1 0
116 18 2 5.2700000000000002e-01 -2.0002670567651155e+01 -3.2069224114533483e+00 4.4367029776361804e+00 0 0 0
167 35 2 5.2700000000000002e-01 -1.6211539554535239e+01 7.5548349841650690e+00 7.0853275996048986e+00 0 -1 0
166 35 1 -1.0540000000000000e+00 -1.6865041567837210e+01 7.4476878236888044e+00 6.3941809134409340e+00 0 -1 0
386 108 2 5.2700000000000002e-01 -1.3789235449160447e+01 -1.5538330059598273e+00 5.2837210705533835e+00 0 1 -1
385 108 1 -1.0540000000000000e+00 -1.4489696505607963e+01 -1.1882297492396656e+00 4.7434263407972423e+00 0 1 -1
811 250 1 -1.0540000000000000e+00 -1.4035530915218903e+01 -5.1354747755400521e+00 3.2479323924606209e+00 0 0 0
813 250 2 5.2700000000000002e-01 -1.4867189008256428e+01 -4.7197923889184743e+00 3.0203802150362868e+00 0 0 0
362 100 2 5.2700000000000002e-01 -1.0693380955475314e+01 1.8516661929819378e-03 3.1162673828807712e+00 0 0 -1
752 230 2 5.2700000000000002e-01 -1.2887069937249912e+01 -7.0860334251359909e+00 9.2491955429127337e-01 0 1 0
812 250 2 5.2700000000000002e-01 -1.3394230483580927e+01 -4.7210188478444506e+00 2.6707068345511846e+00 0 0 0
302 80 2 5.2700000000000002e-01 -1.1569137972160251e+01 -3.5524421163671285e+00 2.6900906661739370e+00 0 0 0
1326 421 2 5.2700000000000002e-01 -1.9958186583126302e+01 3.4676424687165852e+00 1.7645191851061881e+00 1 0 0
306 81 2 5.2700000000000002e-01 -1.3256859331347545e+01 9.1815322373389741e-01 2.5913923280112225e+00 0 0 0
301 80 1 -1.0540000000000000e+00 -1.1630337830679023e+01 -4.0458091984693274e+00 1.8721200046353204e+00 0 0 0
300 79 2 5.2700000000000002e-01 -1.7746396830514172e+01 -2.3554124473783453e+00 6.0453317138934555e+00 0 0 -1
741 226 2 5.2700000000000002e-01 -1.4924589369691262e+01 -6.6960671097787019e+00 7.3150286049087754e+00 0 1 -1
1541 493 2 5.2700000000000002e-01 -1.7707556349057679e+01 -1.2613149566616455e+00 -1.6365842975421074e-01 1 1 0
168 35 2 5.2700000000000002e-01 -1.7337225469086025e+01 6.6497390091661099e+00 6.6319848561657277e+00 0 -1 0
776 238 2 5.2700000000000002e-01 -1.3728786913095572e+01 -5.9990005947297336e+00 4.9932820859367197e+00 0 1 0
1384 441 1 -1.0540000000000000e+00 -1.8326057046188737e+01 -6.3789535122867624e+00 2.9229503289097938e+00 1 1 0
135 24 2 5.2700000000000002e-01 -1.6332950047315872e+01 -8.0338955618028418e+00 4.6908386042234955e+00 0 1 1
70 3 1 -1.0540000000000000e+00 -1.9980987002174633e+01 3.9027466300029019e+00 4.8645675596047955e+00 0 0 0
159 32 2 5.2700000000000002e-01 -1.2265287865391313e+01 -2.4712435204648404e+00 7.1305649681490362e+00 0 1 -1
303 80 2 5.2700000000000002e-01 -1.1990439673715668e+01 -3.4218344591072221e+00 1.2418703290915438e+00 0 0 0
819 252 2 5.2700000000000002e-01 -1.1669922922277408e+01 -2.8322103865754267e+00 5.1536652675804220e+00 0 1 1
298 79 1 -1.0540000000000000e+00 -1.7972309081879565e+01 -1.7292691980402131e+00 6.7331837208079008e+00 0 0 -1
663 200 2 5.2700000000000002e-01 -1.0880065006173341e+01 -4.7683165206746372e+00 5.0117195415346689e+00 0 1 -1
735 224 2 5.2700000000000002e-01 -1.1827474312235097e+01 7.2564692551703036e+00 5.0911755631865638e+00 0 0 0
133 24 1 -1.0540000000000000e+00 -1.5938702174856312e+01 -7.5147052154725094e+00 3.9899524458986289e+00 0 1 1
134 24 2 5.2700000000000002e-01 -1.5139243107686724e+01 -7.1574424028699175e+00 4.3765478576479175e+00 0 1 1
1487 475 2 5.2700000000000002e-01 -1.6217972984058278e+01 2.5731526203265087e+00 -2.0553815406250298e-01 1 -1 1
817 252 1 -1.0540000000000000e+00 -1.1042596557776633e+01 -3.0424759176766649e+00 4.4619423766548643e+00 0 1 1
269 69 2 5.2700000000000002e-01 -1.6215956405285020e+01 1.8102396318129443e+00 4.3489594815021917e+00 0 1 0
308 82 2 5.2700000000000002e-01 -1.2044644784672467e+01 -5.4342236055108977e+00 -3.8354603392748743e-01 0 1 0
182 40 2 5.2700000000000002e-01 -1.5475523964768051e+01 2.9344871009709639e+00 6.3431237046850679e+00 0 0 0
753 230 2 5.2700000000000002e-01 -1.3710660270384306e+01 -6.8991760327611980e+00 2.1813723792186916e+00 0 1 0
1436 458 2 5.2700000000000002e-01 -1.8807041738867120e+01 1.1644179508598977e+00 5.1090050790227313e+00 1 -1 0
1435 458 1 -1.0540000000000000e+00 -1.8677040541073048e+01 9.4608419169400726e-01 6.0318604475791506e+00 1 -1 0
477 138 2 5.2700000000000002e-01 -1.2512985576743501e+01 2.0313769548050296e+00 4.3676710305090651e+00 0 0 0
251 63 2 5.2700000000000002e-01 -1.9107797572613634e+01 5.6195620597712956e+00 7.8212805929128493e-01 0 0 0
183 40 2 5.2700000000000002e-01 -1.4814054589880083e+01 1.5787504391961420e+00 6.2153399274355241e+00 0 0 0
733 224 1 -1.0540000000000000e+00 -1.2489896255632804e+01 7.0323416399761296e+00 5.7447761172584713e+00 0 0 0
805 248 1 -1.0540000000000000e+00 -1.0753258558787614e+01 4.0461183133326983e-01 6.3947135148103609e+00 0 0 -1
1437 458 2 5.2700000000000002e-01 -1.7810640343222946e+01 1.2949744911404419e+00 6.2412715269166767e+00 1 -1 0
106 15 1 -1.0540000000000000e+00 -1.5519855715215009e+01 4.6464651400531931e+00 8.1057515553762389e+00 0 -1 0
181 40 1 -1.0540000000000000e+00 -1.5671382661934688e+01 2.0041019291974251e+00 6.2324222229602668e+00 0 0 0
1488 475 2 5.2700000000000002e-01 -1.6247123224551487e+01 2.9643346956653449e+00 1.2566598487798668e+00 1 -1 1
224 54 2 5.2700000000000002e-01 -1.7932687690439394e+01 8.4467588588821663e-01 2.7698451416064014e+00 0 -1 1
108 15 2 5.2700000000000002e-01 -1.5092637093580835e+01 4.8999725519307358e+00 7.2875529197823408e+00 0 -1 0
165 34 2 5.2700000000000002e-01 -1.3477769975571935e+01 5.5643851015237633e+00 5.7106332164150722e+00 0 0 0
1368 435 2 5.2700000000000002e-01 -1.3139325305490765e+01 2.5232329770656516e+00 -7.5733425105662313e+00 1 0 1
437 125 2 5.2700000000000002e-01 -1.2468698303139249e+01 4.7375663075404670e+00 -7.4182973805071173e+00 0 0 1
1400 446 2 5.2700000000000002e-01 -1.7171127325726854e+01 4.9956639693280653e+00 -8.1903880113880945e-02 1 -1 1
476 138 2 5.2700000000000002e-01 -1.1680469484283769e+01 1.7613154632001500e+00 5.6029344163982469e+00 0 0 0
777 238 2 5.2700000000000002e-01 -1.3277365928673547e+01 -7.3508788625073924e+00 5.5037121576426600e+00 0 1 0
775 238 1 -1.0540000000000000e+00 -1.3833603237015176e+01 -6.6046032914114718e+00 5.7271016614463424e+00 0 1 0
1367 435 2 5.2700000000000002e-01 -1.2604201459739890e+01 1.7689138215166373e+00 7.4743926411807156e+00 1 0 0
751 230 1 -1.0540000000000000e+00 -1.3282628245716744e+01 -7.5702489113725449e+00 1.6496952241030431e+00 0 1 0
114 17 2 5.2700000000000002e-01 -1.6064669324426539e+01 5.6421370608618542e+00 3.0299107032758332e+00 0 0 0
422 120 2 5.2700000000000002e-01 -1.3824254550092114e+01 5.2729982977830154e+00 -1.4576221103757021e+00 0 -1 -1
1474 471 1 -1.0540000000000000e+00 -1.9778490367551587e+01 6.7341504076528906e+00 3.7691204051558174e+00 1 1 0
223 54 1 -1.0540000000000000e+00 -1.8694729162781201e+01 2.8339457298111448e-01 2.6267204840675102e+00 0 -1 1
1366 435 1 -1.0540000000000000e+00 -1.2830521118865150e+01 1.6599255701286229e+00 -7.8482477821993815e+00 1 0 1
113 17 2 5.2700000000000002e-01 -1.5353896529122597e+01 4.8866573365292911e+00 4.1326094598313396e+00 0 0 0
387 108 2 5.2700000000000002e-01 -1.4417949622044254e+01 -2.4159976877842837e-01 4.8658028588449174e+00 0 1 -1
475 138 1 -1.0540000000000000e+00 -1.2366976724743097e+01 2.3355008134513788e+00 5.2634514159037398e+00 0 0 0
636 191 2 5.2700000000000002e-01 -1.0394785855678510e+01 6.1857451374977455e+00 9.6590581778927209e-01 0 0 1
112 17 1 -1.0540000000000000e+00 -1.6081085261124368e+01 4.8166095985323114e+00 3.5141285927711170e+00 0 0 0
1475 471 2 5.2700000000000002e-01 -1.9872991469404887e+01 7.3247318502717196e+00 4.5164590509862048e+00 1 1 0
268 69 1 -1.0540000000000000e+00 -1.6835115950538757e+01 2.0536010867092855e+00 3.6607396483843218e+00 0 1 0
346 95 1 -1.0540000000000000e+00 -1.2639435270123116e+01 3.8501613780791377e+00 2.1178595025849578e+00 0 0 0
225 54 2 5.2700000000000002e-01 -1.9421668345860951e+01 8.9322876693961639e-01 2.5006633618865681e+00 0 -1 1
634 191 1 -1.0540000000000000e+00 -1.0557021321620640e+01 6.0686098137391014e+00 1.9019565255987825e+00 0 0 1
424 121 1 -1.0540000000000000e+00 -1.0434053413128060e+01 -1.9752886471227704e-01 -1.6574281816485144e+00 0 0 0
401 113 2 5.2700000000000002e-01 -1.9344924684114648e+01 -4.1043525715654745e+00 -3.2686656564549548e+00 0 0 0
397 112 1 -1.0540000000000000e+00 -1.9223226694249345e+01 -7.2384363539963710e+00 -2.9790726095564208e+00 0 0 0
1464 467 2 5.2700000000000002e-01 -1.8984639873675345e+01 -6.4364783166205202e+00 6.5829283073493219e+00 1 0 0
402 113 2 5.2700000000000002e-01 -1.9651244105506787e+01 -5.3773150950210713e+00 -2.5086462880594560e+00 0 0 0
348 95 2 5.2700000000000002e-01 -1.2592416860585104e+01 3.8237128543942234e+00 1.1621806088371258e+00 0 0 0
425 121 2 5.2700000000000002e-01 -1.1369781034387778e+01 -2.4731514767120366e-01 -1.8527762847076694e+00 0 0 0
750 229 2 5.2700000000000002e-01 -2.0046096094854569e+01 -3.1891394216365985e+00 -1.3467071899506955e-01 0 1 1
388 109 1 -1.0540000000000000e+00 -1.0221561603312468e+01 3.8527644207502636e+00 7.2999083503574198e+00 0 0 0
1467 468 2 5.2700000000000002e-01 -2.0071528380129028e+01 2.3180315062855943e+00 -7.6589991485344138e+00 1 0 1
1308 415 2 5.2700000000000002e-01 -1.0342285978509713e+01 -5.3711097157186884e+00 -5.0393500146113563e+00 1 1 1
662 200 2 5.2700000000000002e-01 -1.0713661772237154e+01 -5.6190487810196199e+00 6.2528724970175080e+00 0 1 -1
148 29 1 -1.0540000000000000e+00 -1.9724388988655100e+01 -7.8166076341721560e+00 4.3771360539758852e-01 0 1 1