LAMMPS data file via write_data, version 29 Sep 2021, timestep = 20000

4948 atoms
5 atom types
2432 bonds
1 bond types
1216 angles
1 angle types

-16.16 16.16 xlo xhi
-16.16 16.16 ylo yhi
-52.52 52.52 zlo zhi

Masses

1 15.9994
2 1.008
3 28.99
4 35.453
5 26.9815

Pair Coeffs # lj/cut/tip4p/long

1 0.185199 3.1589
2 0 0
3 0.0469 2.4299
4 0.15 4.0447
5 11.697 2.574

Bond Coeffs # harmonic

1 0 0.9572

Angle Coeffs # harmonic

1 0 104.52

Atoms # full

355 0 5 0 -9.987292115279931 15.073277878790423 -19.55865970350405 0 -1 0
353 0 5 0 -12.06578651033118 15.186197938726119 -21.509294253367603 0 -1 0
383 0 5 0 -14.007928683937562 15.154673220951523 -19.440727451483017 1 -1 0
99 0 5 0 -10.000768423022175 15.11047123922621 -23.39947927988324 0 -1 0
127 0 5 0 -14.0498107756147 15.108204961731529 -23.49630096314988 1 -1 0
97 0 5 0 -12.00329183544777 15.100960911707075 -25.356964827240834 0 -1 0
356 0 5 0 -12.118710172237659 -15.223220509097654 -19.48743248484631 0 0 0
354 0 5 0 -10.054662679551189 -15.183388385184633 -21.532495199000397 0 0 0
382 0 5 0 -14.076093131900757 -15.142206980110352 -21.560822572400628 1 0 0
100 0 5 0 -12.062620712140403 -15.110554918323228 -23.482299092296408 0 0 0
126 0 5 0 -14.068282254211931 -15.15280580453539 -25.52761607055046 1 0 0
98 0 5 0 -10.089647087726828 -15.21369675014912 -25.472836166880665 0 0 0
381 0 5 0 -16.021721093292523 15.097023888054448 -21.456889651775466 1 -1 0
128 0 5 0 -16.12146602381329 -15.197530159941975 -23.54307197258561 1 0 0
384 0 5 0 -16.08687571752963 -15.155841797588351 -19.53932893163516 1 0 0
387 0 5 0 -10.003460081903558 -13.261284954306925 -19.45399877352856 0 0 0
385 0 5 0 -12.027677306925135 -13.166342179612323 -21.503317121231092 0 0 0
415 0 5 0 -14.025634625265004 -13.111143620369395 -19.54775949598182 1 0 0
131 0 5 0 -10.016110383059873 -13.16710570133371 -23.513889807107905 0 0 0
159 0 5 0 -13.922523515715081 -13.117818889001157 -23.512340522921548 1 0 0
129 0 5 0 -12.017691298958713 -13.123837914951679 -25.547085477790002 0 0 0
413 0 5 0 -16.090971225680313 -13.101409351250565 -21.589318299881622 1 0 0
157 0 5 0 -16.035293191480203 -13.06727542355361 -25.38815549285756 1 0 0
125 0 5 0 -16.050479783354312 15.122461671277089 -25.432212657515166 1 -1 0
388 0 5 0 -11.969353562866205 -11.102227826837193 -19.441719769297794 0 0 0
386 0 5 0 -9.994501128837067 -11.166276700551897 -21.471647532798702 0 0 0
414 0 5 0 -13.985663930070046 -11.136006533616461 -21.51278898505071 1 0 0
132 0 5 0 -12.008132731224343 -11.127290255750731 -23.523438056524608 0 0 0
130 0 5 0 -9.94194710392573 -11.110393572126554 -25.566807321731826 0 0 0
158 0 5 0 -13.993284657986186 -11.013963524089288 -25.52619155134383 1 0 0
416 0 5 0 -16.06756028907917 -11.164383112095887 -19.58295794278927 1 0 0
160 0 5 0 -16.099787192847934 -11.11547543710931 -23.468018029281307 1 0 0
575 0 5 0 -16.102520302186164 15.086385798685004 -17.518237892778323 1 -1 0
563 0 5 0 -8.005328478454908 15.179816484076394 -17.480952316973312 0 -1 0
357 0 5 0 -7.897151399991431 15.118365180042955 -21.53191659106335 0 -1 0
104 0 5 0 -8.007292138915416 -15.17697444278798 -23.491909033019173 0 0 0
101 0 5 0 -7.899148092491312 15.033139148362032 -25.493914918985762 0 -1 0
360 0 5 0 -7.967826155959607 -15.159040557816478 -19.497078459898447 0 0 0
361 0 5 0 -3.9575905775432303 15.077326618612744 -21.447154292933188 0 -1 0
103 0 5 0 -5.930703311201668 15.105013056984166 -23.506860452954808 0 -1 0
107 0 5 0 -1.9860495621168204 15.105512248681974 -23.441661425446426 0 -1 0
105 0 5 0 -3.9885952487553826 15.111310698155698 -25.539279838024925 0 -1 0
359 0 5 0 -5.929273432682457 15.072538293442115 -19.45777731442182 0 -1 0
363 0 5 0 -1.98365140862889 15.16413330483288 -19.436263163322398 0 -1 0
358 0 5 0 -5.925517431726223 -15.149099360060971 -21.48388001753778 0 0 0
364 0 5 0 -3.9604653290201637 -15.15819763253644 -19.440467817001803 0 0 0
362 0 5 0 -1.9431138487220165 -15.198612840721283 -21.48082244677669 0 0 0
108 0 5 0 -3.928734475953573 -15.177895331187132 -23.438639176146726 0 0 0
102 0 5 0 -5.904743603695873 -15.135121453681435 -25.51424112139745 0 0 0
106 0 5 0 -1.8465886722591485 -15.238797971716412 -25.451256767665235 0 0 0
389 0 5 0 -8.000402350939554 -13.226509766648496 -21.49807435276354 0 0 0
133 0 5 0 -7.960911039686684 -13.21920058317626 -25.54618195317232 0 0 0
391 0 5 0 -5.914144199435604 -13.294632652806287 -19.503075861871253 0 0 0
395 0 5 0 -1.9454718798896407 -13.165192414712253 -19.491454731982856 0 0 0
393 0 5 0 -3.899693124087956 -13.219676936620099 -21.46914425352367 0 0 0
139 0 5 0 -1.8111929787653982 -13.194365072788717 -23.394895600369143 0 0 0
135 0 5 0 -5.986381696289039 -13.199750753527997 -23.457069406912144 0 0 0
137 0 5 0 -3.914382979234201 -13.219941945340915 -25.44763587467213 0 0 0
392 0 5 0 -7.9317091163511195 -11.206156870768435 -19.526601566164214 0 0 0
136 0 5 0 -8.030704312705444 -11.1540503492857 -23.45353838562244 0 0 0
396 0 5 0 -4.0120808614096415 -11.250773419327164 -19.448683201471084 0 0 0
390 0 5 0 -5.963002990569251 -11.219632108704884 -21.504285252000148 0 0 0
394 0 5 0 -1.96161919503706 -11.14289164082153 -21.388301260423248 0 0 0
140 0 5 0 -3.9356274550585755 -11.201488066461025 -23.508116576663127 0 0 0
134 0 5 0 -5.979971811740781 -11.259049914756261 -25.606108848443995 0 0 0
138 0 5 0 -1.8784163043595778 -11.1712521180835 -25.42427371457184 0 0 0
566 0 5 0 -2.0232854707688155 -15.184011335964597 -17.441649672758626 0 0 0
109 0 5 0 0.14518634876062186 15.134386061442475 -25.376272090198377 0 -1 0
365 0 5 0 0.0823521844207481 15.103658120111252 -21.387916915628107 0 -1 0
368 0 5 0 0.10316721604389911 -15.149958211045028 -19.40653546029589 0 0 0
112 0 5 0 0.11230750646009557 -15.221182910508373 -23.3815472144932 0 0 0
367 0 5 0 2.10684716249046 15.099611611261341 -19.402882238332737 0 -1 0
371 0 5 0 6.161460440536739 15.138811222166465 -19.431462496605082 0 -1 0
369 0 5 0 4.1020571180034 15.115372051715946 -21.413173821024078 0 -1 0
115 0 5 0 6.200984226878029 15.082788920915618 -23.402722634163 0 -1 0
111 0 5 0 2.1226399407154366 15.075272823126395 -23.365893029099126 0 -1 0
113 0 5 0 4.193781909269834 15.093100352594783 -25.452174043867696 0 -1 0
366 0 5 0 2.094306961156194 -15.203707547901471 -21.412288458303482 0 0 0
372 0 5 0 4.128500329188296 -15.160924766652876 -19.457575574879254 0 0 0
370 0 5 0 6.126040893940321 -15.239638315058302 -21.419643248824592 0 0 0
116 0 5 0 4.118037000292281 -15.202260698610555 -23.430835273549235 0 0 0
110 0 5 0 2.0645468143661514 -15.206500684055138 -25.474424825629598 0 0 0
114 0 5 0 6.134016241014015 -15.1333493143044 -25.330974428513535 0 0 0
397 0 5 0 0.07404055747688523 -13.202242506798312 -21.39836893421932 0 0 0
141 0 5 0 0.17004199038823783 -13.113465182648227 -25.51002218601517 0 0 0
399 0 5 0 2.1479267317219897 -13.153005718675333 -19.41243690739506 0 0 0
403 0 5 0 6.177138650069282 -13.124947380927505 -19.398013539497178 0 0 0
401 0 5 0 4.075283039701403 -13.154449213013216 -21.346896071404593 0 0 0
147 0 5 0 6.125145415880968 -13.128377668996812 -23.34054332396688 0 0 0
143 0 5 0 2.0340760005439518 -13.185527822390073 -23.345741654851796 0 0 0
145 0 5 0 4.096425202214198 -13.148945556645735 -25.364279965520044 0 0 0
144 0 5 0 0.007790035875421963 -11.086243922175248 -23.330787216165348 0 0 0
400 0 5 0 0.05377479566843146 -11.15693452850677 -19.454397139639486 0 0 0
398 0 5 0 2.056784063532995 -11.107133563157959 -21.36257973195974 0 0 0
404 0 5 0 4.136099124464565 -11.160359065764684 -19.41121439338908 0 0 0
402 0 5 0 6.1646507793024075 -11.051970233852918 -21.360801476935727 0 0 0
148 0 5 0 4.167175057792788 -11.107251616403085 -23.283519476785 0 0 0
146 0 5 0 6.102346764205508 -11.177331330064224 -25.417750423776994 0 0 0
142 0 5 0 2.10114951439252 -11.10376785814393 -25.226909197190132 0 0 0
567 0 5 0 0.040347626098232156 15.186825067489169 -17.43825869832327 0 -1 0
568 0 5 0 2.1415906004510927 -15.182009863018587 -17.451609009680947 0 0 0
585 0 5 0 4.138382317726583 -13.236297709869381 -17.41090380666212 0 0 0
373 0 5 0 8.23582063958416 15.091542128721624 -21.376439279940545 0 -1 0
117 0 5 0 8.17060000733004 15.203709512586261 -25.340672416081585 0 -1 0
376 0 5 0 8.194511557571587 -15.216703303997823 -19.35922639829686 0 0 0
120 0 5 0 8.19380922773631 -15.200133597204589 -23.363406256511478 0 0 0
375 0 5 0 10.179084371288397 15.163823157823352 -19.417023025975194 0 -1 0
379 0 5 0 14.264306250457022 15.12467279585792 -19.499484851408475 0 -1 0
377 0 5 0 12.24743442292381 15.127485903573898 -21.431251559525954 0 -1 0
119 0 5 0 10.193779833330327 15.147711513084985 -23.360507043788527 0 -1 0
123 0 5 0 14.23372754827799 15.095933783429379 -23.451110174177934 0 -1 0
121 0 5 0 12.239596185935387 15.079281330754341 -25.436289681725796 0 -1 0
374 0 5 0 10.220691702678316 -15.212355729251227 -21.34823252343743 0 0 0
380 0 5 0 12.331413804434023 -15.148243076320815 -19.45656242203235 0 0 0
378 0 5 0 14.258669142115387 -15.219873433002292 -21.487887700809754 0 0 0
124 0 5 0 12.180122346678804 -15.271172709137597 -23.412750468145312 0 0 0
122 0 5 0 14.176812583146981 -15.176682426170425 -25.463969702698225 0 0 0
118 0 5 0 10.232515911758977 -15.184505492566053 -25.427694921537313 0 0 0
405 0 5 0 8.16025207109677 -13.143693430746378 -21.450231974936628 0 0 0
149 0 5 0 8.202681818448811 -13.217640640843712 -25.33962827352582 0 0 0
407 0 5 0 10.317737587444125 -13.132514892957525 -19.441834519248417 0 0 0
411 0 5 0 14.233097616646075 -13.131102783908176 -19.587850580298564 0 0 0
409 0 5 0 12.313947358793428 -13.156414801348431 -21.451211979762604 0 0 0
151 0 5 0 10.29835263298841 -13.201686219836914 -23.354205256438604 0 0 0
155 0 5 0 14.184397121183187 -13.1205474107483 -23.540198470789036 0 0 0
153 0 5 0 12.204544767449264 -13.180076860324242 -25.473911816174102 0 0 0
408 0 5 0 8.265975911478993 -11.176749713320566 -19.496685217861316 0 0 0
152 0 5 0 8.14201513701606 -11.08466572325747 -23.425300665007853 0 0 0
406 0 5 0 10.266581170479693 -11.122286919289474 -21.453504995613955 0 0 0
412 0 5 0 12.287500693222384 -11.08845120233013 -19.473880916914464 0 0 0
410 0 5 0 14.217530601562697 -11.093945559259268 -21.513797503021898 0 0 0
156 0 5 0 12.214484498793471 -11.136844381840465 -23.46306991596005 0 0 0
150 0 5 0 10.207688267402986 -11.14927733061266 -25.415899943335877 0 0 0
154 0 5 0 14.256431721920528 -11.077392312492593 -25.489270900191187 0 0 0
572 0 5 0 10.234726959047128 -15.194845649610404 -17.455222338380388 0 0 0
589 0 5 0 12.357039488308146 -13.197250458508684 -17.4109400489812 0 0 0
417 0 5 0 -12.00024740244561 -9.105178090482717 -21.505054174704217 0 0 0
419 0 5 0 -9.962261019297758 -9.18460878808695 -19.50112223103303 0 0 0
447 0 5 0 -14.006184156598122 -9.086983037952221 -19.584023828316408 1 0 0
191 0 5 0 -14.034853009194068 -9.056971896482102 -23.401884362076146 1 0 0
163 0 5 0 -10.031022046577052 -9.1470641936986 -23.5296220406238 0 0 0
161 0 5 0 -12.032302207981644 -9.02553365264058 -25.381258336973364 0 0 0
420 0 5 0 -11.948956368140353 -7.088953774583657 -19.5058909502153 0 0 0
418 0 5 0 -10.030981858361205 -7.134601384529131 -21.495657476671198 0 0 0
446 0 5 0 -14.0024784824956 -7.08616144570056 -21.438082995481963 1 0 0
164 0 5 0 -11.9580026125872 -7.015261594086734 -23.438716005163418 0 0 0
162 0 5 0 -10.004197499338396 -7.165395323544422 -25.507334615259694 0 0 0
190 0 5 0 -14.131353123577773 -7.039000170722545 -25.429300468068718 1 0 0
445 0 5 0 -16.100444836792338 -9.076028669052587 -21.540377335405474 1 0 0
189 0 5 0 -16.03881999472996 -9.128500920114728 -25.42497763509631 1 0 0
448 0 5 0 -16.030783684144595 -7.075283690384732 -19.49795813351694 1 0 0
192 0 5 0 -16.070953310053916 -7.113880926298997 -23.442884811520685 1 0 0
449 0 5 0 -12.021787634397832 -5.076499356508069 -21.49834910444976 0 0 0
451 0 5 0 -10.018125429880163 -5.091048793133532 -19.485729727165673 0 0 0
479 0 5 0 -13.99082153288221 -5.071872379362659 -19.456653978126845 1 0 0
195 0 5 0 -9.938818305292175 -5.054348795605562 -23.44154904970288 0 0 0
223 0 5 0 -14.082138463414305 -5.052865832142181 -23.478585801569626 1 0 0
193 0 5 0 -11.936666928241086 -5.025532503126488 -25.533198797764992 0 0 0
477 0 5 0 -16.03707709704905 -5.099588380061217 -21.444482469034803 1 0 0
221 0 5 0 16.107926583099157 -5.043972598579443 -25.508724823776777 0 0 0
452 0 5 0 -11.954636606604426 -3.1141362114765574 -19.530604591670155 0 0 0
450 0 5 0 -10.016032895933364 -3.0456430830831986 -21.549021637929815 0 0 0
478 0 5 0 -14.042117248748319 -3.0723712726910213 -21.434758368714867 1 0 0
196 0 5 0 -11.974568273702706 -3.11458272526131 -23.414887344596355 0 0 0
222 0 5 0 -14.083705181978576 -3.033540836397803 -25.412494912796056 1 0 0
194 0 5 0 -9.987752879291282 -3.0162481580429326 -25.450012580694096 0 0 0
480 0 5 0 -16.038925903563612 -3.068488224019514 -19.508030551690005 1 0 0
224 0 5 0 -16.079500534218937 -3.0540299014954644 -23.325044678370716 1 0 0
607 0 5 0 -16.11213067957593 -9.09100121003849 -17.57615861966427 1 0 0
609 0 5 0 -12.021978951064108 -5.092703652664238 -17.424589838431547 0 0 0
421 0 5 0 -7.9755929158106325 -9.205189505599307 -21.49084702065741 0 0 0
165 0 5 0 -7.951021815920131 -9.205873210519657 -25.471014501535393 0 0 0
424 0 5 0 -8.026677494281365 -7.1536987032958805 -19.484142832458286 0 0 0
168 0 5 0 -7.98482036641248 -7.145776575240519 -23.491752324825892 0 0 0
423 0 5 0 -5.957092169209225 -9.104967647566319 -19.54558064329148 0 0 0
425 0 5 0 -3.958025073635326 -9.224421355310641 -21.45054070287532 0 0 0
427 0 5 0 -2.0143163866246994 -9.168257893740178 -19.398787414501577 0 0 0
167 0 5 0 -5.9225104531952635 -9.237131971861114 -23.433690922941008 0 0 0
171 0 5 0 -1.958807961274243 -9.164579916792214 -23.3842443925044 0 0 0
169 0 5 0 -3.9914405449419483 -9.110242402879615 -25.494566592374806 0 0 0
422 0 5 0 -6.031120440784627 -7.124718592586649 -21.426236875756185 0 0 0
428 0 5 0 -3.9863149083952387 -7.172465048531506 -19.454382560732228 0 0 0
426 0 5 0 -2.004453632185863 -7.1539171477760695 -21.41991736606721 0 0 0
172 0 5 0 -3.9558097943758064 -7.1780571238278865 -23.42337979533045 0 0 0
170 0 5 0 -1.863396860515832 -7.021477400421189 -25.376653682250524 0 0 0
166 0 5 0 -5.962749350193072 -7.05085645109993 -25.40775277824042 0 0 0
197 0 5 0 -7.985505340069646 -5.048096131267288 -25.481551103803497 0 0 0
453 0 5 0 -8.019590527628528 -5.101252308714709 -21.440422269597057 0 0 0
455 0 5 0 -5.922884805762273 -5.1611345560482 -19.52926099536252 0 0 0
459 0 5 0 -1.9399018460616249 -5.11227970180441 -19.39365521914315 0 0 0
457 0 5 0 -3.980412363295757 -5.170016835061138 -21.404913638867303 0 0 0
199 0 5 0 -5.8980239540762875 -5.100478267244301 -23.417352564851043 0 0 0
203 0 5 0 -1.942334551620597 -5.141884333324225 -23.384780273929536 0 0 0
201 0 5 0 -3.9219475758529816 -5.093643086162123 -25.49603665118043 0 0 0
456 0 5 0 -8.060480469171601 -3.1528449910563823 -19.475749909418305 0 0 0
200 0 5 0 -7.913895835959806 -3.1401466100244066 -23.435514071981377 0 0 0
454 0 5 0 -5.910261555265532 -3.083074186901784 -21.3753123159043 0 0 0
460 0 5 0 -3.9342308591251935 -3.107308667678131 -19.359702774538196 0 0 0
458 0 5 0 -1.874755647303886 -3.100617707993776 -21.35421788479857 0 0 0
204 0 5 0 -3.9434608197820618 -3.1092231863611293 -23.337152814196074 0 0 0
202 0 5 0 -1.9473676708468701 -3.0265741042470946 -25.383633933961704 0 0 0
198 0 5 0 -5.886055869354539 -3.122849738962652 -25.402003347325053 0 0 0
597 0 5 0 -3.9771332602071636 -9.155954891856535 -17.444733531923244 0 0 0
598 0 5 0 -1.9968666749835293 -7.092441961275646 -17.410351027509655 0 0 0
429 0 5 0 0.01268865528525234 -9.120741139646876 -21.32117279298747 0 0 0
173 0 5 0 0.08342561217268077 -9.148434631067195 -25.400078806701462 0 0 0
432 0 5 0 0.04877728334961279 -7.131604273134143 -19.429744118245715 0 0 0
176 0 5 0 0.05848912828778937 -7.11279609398237 -23.38911926946002 0 0 0
431 0 5 0 2.1335563658881256 -9.14616070572698 -19.407474643309282 0 0 0
435 0 5 0 6.1835032053698225 -9.097878543755074 -19.367326044340068 0 0 0
433 0 5 0 4.186629185473618 -9.065311090096834 -21.351078969184996 0 0 0
175 0 5 0 2.0549770685634203 -9.096246353561442 -23.362721556030092 0 0 0
179 0 5 0 6.149761101039287 -9.131851564487327 -23.345751645566807 0 0 0
177 0 5 0 4.169697884301656 -9.07955609205178 -25.373119306878003 0 0 0
430 0 5 0 2.0762036605193264 -7.147257492602037 -21.41452796368537 0 0 0
436 0 5 0 4.0775334689696345 -7.084449391622191 -19.428927611080496 0 0 0
434 0 5 0 6.143830659182823 -7.053047061416717 -21.373140944232897 0 0 0
180 0 5 0 4.086442075466357 -7.026833756987168 -23.387056509880484 0 0 0
178 0 5 0 6.208138862858561 -7.059130127476828 -25.319184660284336 0 0 0
174 0 5 0 2.0098145682195114 -7.074751397620821 -25.409898147219177 0 0 0
461 0 5 0 0.0750420913010393 -5.069505583061539 -21.346887581744937 0 0 0
205 0 5 0 0.08639567583735808 -5.0530923568247985 -25.290137874624786 0 0 0
463 0 5 0 2.0858394678898597 -5.057418248922551 -19.430555760761855 0 0 0
467 0 5 0 6.110900419686734 -5.064404862644853 -19.371403317358745 0 0 0
465 0 5 0 4.127516550915712 -5.105626220765402 -21.42173133816724 0 0 0
207 0 5 0 2.0181406188080016 -5.081960379598809 -23.28601190103337 0 0 0
211 0 5 0 6.134297049281423 -5.0473690411672525 -23.33986543249112 0 0 0
209 0 5 0 4.007348659150851 -5.029321550095228 -25.243741961913646 0 0 0
464 0 5 0 0.07982553086646305 -3.1087725461796403 -19.340541793997676 0 0 0
208 0 5 0 0.03651558117241494 -3.0068876722621516 -23.293284727734715 0 0 0
462 0 5 0 2.0820487448244056 -3.064304062880649 -21.355361837821224 0 0 0
468 0 5 0 4.170837134776361 -3.136319344587157 -19.407958690426515 0 0 0
466 0 5 0 6.1260949321107585 -3.0497074234843247 -21.42100885638597 0 0 0
212 0 5 0 4.07796101646974 -3.013602594721896 -23.31541887514574 0 0 0
206 0 5 0 2.030649386446961 -3.0713388207194425 -25.283811102320485 0 0 0
210 0 5 0 6.055626339832576 -3.074119039863774 -25.390380460151405 0 0 0
601 0 5 0 4.1417523530449225 -9.150995075856631 -17.364045136082293 0 0 0
617 0 5 0 4.1268730828089675 -5.1464383173239465 -17.442696116970453 0 0 0
616 0 5 0 2.128736231644424 -3.1200449864801203 -17.422233286851853 0 0 0
618 0 5 0 6.220132072978415 -3.1281560352818225 -17.31770620753284 0 0 0
469 0 5 0 8.15846939497793 -5.064765170037661 -21.408325804784866 0 0 0
437 0 5 0 8.306755829203487 -9.123797784250213 -21.405065856275055 0 0 0
181 0 5 0 8.147665464792189 -9.116804202223939 -25.434280775613583 0 0 0
440 0 5 0 8.163392190817948 -7.054604999501902 -19.493707453362962 0 0 0
184 0 5 0 8.140765188432097 -7.07268858149571 -23.290619370507233 0 0 0
439 0 5 0 10.319132172181096 -9.051138562950731 -19.41973587659902 0 0 0
443 0 5 0 14.258266286533985 -9.040114379077536 -19.491942558296934 0 0 0
441 0 5 0 12.189195262175199 -9.174859285461427 -21.512444140100328 0 0 0
183 0 5 0 10.19468444687813 -9.050789922167803 -23.461326770799797 0 0 0
187 0 5 0 14.221900890988982 -9.11206624736995 -23.498627089401904 0 0 0
185 0 5 0 12.104753502022664 -9.095108120544134 -25.39253502422344 0 0 0
438 0 5 0 10.191257775981173 -7.06439248206518 -21.408068680646057 0 0 0
444 0 5 0 12.23734173928829 -7.122980817774039 -19.508233176205373 0 0 0
442 0 5 0 14.257445257137245 -7.074006778209461 -21.443536918164064 0 0 0
188 0 5 0 12.160102668994519 -7.060855347238184 -23.31136796260589 0 0 0
182 0 5 0 10.16659826452855 -7.162992034924038 -25.334930671547646 0 0 0
186 0 5 0 14.143727190606636 -7.12770836646541 -25.321489625463283 0 0 0
213 0 5 0 8.15602712981172 -4.995466506518987 -25.343127589088073 0 0 0
471 0 5 0 10.174125912421324 -5.103901639909698 -19.41003595271563 0 0 0
475 0 5 0 14.2436930495166 -5.103101959898741 -19.510751630285668 0 0 0
473 0 5 0 12.195994545395397 -4.968566843100363 -21.385729495846817 0 0 0
215 0 5 0 10.202431608392192 -5.096555613802534 -23.351247797826552 0 0 0
219 0 5 0 14.236976780128431 -5.070898767835832 -23.372451295000275 0 0 0
217 0 5 0 12.184340155539589 -5.103826086194098 -25.335891982821607 0 0 0
472 0 5 0 8.14698262268219 -3.006747140808606 -19.3582219234427 0 0 0
216 0 5 0 8.172850748669925 -3.032754004190663 -23.36757217958731 0 0 0
470 0 5 0 10.10780013769079 -3.0532700117331006 -21.414031548218276 0 0 0
476 0 5 0 12.225423650523089 -2.921104867280525 -19.42743688821494 0 0 0
474 0 5 0 14.265579319645598 -3.058358638602299 -21.44166478394248 0 0 0
220 0 5 0 12.203136775361278 -3.063331789584409 -23.417507886031643 0 0 0
214 0 5 0 10.227859561485635 -3.1416434074572623 -25.433097202724223 0 0 0
218 0 5 0 14.24470103330175 -3.072176226762179 -25.40311654725483 0 0 0
621 0 5 0 12.192976488660728 -5.039131132120397 -17.563121214584758 0 0 0
622 0 5 0 14.250971262052563 -3.0921510916967994 -17.5001750535396 0 0 0
483 0 5 0 -9.994280703117566 -1.0991082023601169 -19.449330997554345 0 0 0
481 0 5 0 -11.971434596120195 -1.0955992997910171 -21.501913092183653 0 0 0
511 0 5 0 -14.068837494093604 -0.9784090153838841 -19.497083614478772 1 0 0
227 0 5 0 -9.957162019209296 -1.0038576221823832 -23.458660248764478 0 0 0
255 0 5 0 -13.98165099758782 -1.0433667925541372 -23.47992691109608 1 0 0
225 0 5 0 -11.991554831057943 -1.1123402369941224 -25.512142810556398 0 0 0
484 0 5 0 -12.022109072321667 0.9698277012552823 -19.582810704727386 0 0 0
482 0 5 0 -10.008559018797584 0.9485107397835434 -21.424230211821794 0 0 0
510 0 5 0 -14.040213282214639 1.0454599554467467 -21.500773847767608 1 0 0
228 0 5 0 -11.959959861737563 0.9448419198237744 -23.46270703838024 0 0 0
254 0 5 0 -13.977853627870228 0.992254994487431 -25.37165099964433 1 0 0
226 0 5 0 -10.003514089845863 0.9708039413448415 -25.462240286499583 0 0 0
509 0 5 0 -15.966320090730306 -1.0099667478700765 -21.454791029266723 1 0 0
253 0 5 0 -16.02919356996982 -1.0881951340131502 -25.41495695577447 1 0 0
512 0 5 0 -16.097117792373318 1.0050730025941845 -19.461031866191117 1 0 0
256 0 5 0 -16.0534326775637 1.0178168057221366 -23.40548551547452 1 0 0
259 0 5 0 -10.009904119110583 3.0186416260806985 -19.50086332965196 0 -1 0
257 0 5 0 -11.940984853860469 3.0060330132114057 -21.549718836381764 0 -1 0
287 0 5 0 -14.109596795801481 3.056739489442034 -19.409464330427795 1 -1 0
3 0 5 0 -9.928884197619304 3.023735697201546 -23.35785250104274 0 -1 0
31 0 5 0 -14.012698141031377 2.96504007524541 -23.472765928428583 1 -1 0
1 0 5 0 -12.01063963238668 3.0703102728254055 -25.322904489229174 0 -1 0
285 0 5 0 -16.039455704374568 3.0706027019316826 -21.441549026129916 1 -1 0
29 0 5 0 -16.02868463465267 3.0413630127341205 -25.497295721819263 1 -1 0
260 0 5 0 -12.000023844179662 4.991830770099332 -19.482961620295097 0 -1 0
258 0 5 0 -9.930168267417857 5.036897658455245 -21.435205439935203 0 -1 0
286 0 5 0 -13.995616327369877 4.977810739052791 -21.503284537521388 1 -1 0
4 0 5 0 -11.900711654496606 5.054504094214338 -23.386093717929178 0 -1 0
2 0 5 0 -10.062465959947275 5.047776001170335 -25.406772953933988 0 -1 0
30 0 5 0 -14.016307118312552 5.070616928564481 -25.364144541131132 1 -1 0
288 0 5 0 -16.069570770555863 5.043227544009486 -19.516920871453156 1 -1 0
32 0 5 0 -16.064199843761834 5.004879705113506 -23.453957055106294 1 -1 0
625 0 5 0 -12.043251324492429 -0.9796237063453095 -17.574325024538627 0 0 0
640 0 5 0 -14.045726663309853 1.0064208067441942 -17.544816984683397 1 0 0
513 0 5 0 -12.01223398779622 2.937003469344769 -17.520762311767054 0 -1 0
527 0 5 0 -16.066973665814086 3.0509214569497662 -17.47326330955019 1 -1 0
528 0 5 0 -14.054418262113641 5.046823610350579 -17.34047254284427 1 -1 0
485 0 5 0 -7.970811559006474 -1.0866236621997236 -21.46351521268167 0 0 0
229 0 5 0 -7.830557421054494 -0.9777889392275443 -25.432017276017504 0 0 0
488 0 5 0 -7.998926231657414 0.9279896013260973 -19.538219961304836 0 0 0
232 0 5 0 -7.953808461713904 0.9806806254932896 -23.363727459561193 0 0 0
487 0 5 0 -6.0348546083065875 -1.0369416128327593 -19.446244919980632 0 0 0
491 0 5 0 -1.9919914914021972 -1.1314015244527644 -19.345840407471602 0 0 0
489 0 5 0 -3.999818997035343 -1.0437937269323136 -21.418397214353732 0 0 0
231 0 5 0 -5.977378672644854 -1.0632899272951666 -23.385163882261022 0 0 0
235 0 5 0 -1.9755294321868615 -0.9929626101997396 -23.333433125375503 0 0 0
233 0 5 0 -3.9976358500336713 -1.072110816962992 -25.40225409315854 0 0 0
486 0 5 0 -5.99223407240871 0.945900626388885 -21.43575384134994 0 0 0
492 0 5 0 -3.992962739353777 0.967454086629248 -19.44813707289031 0 0 0
490 0 5 0 -1.9279881752045895 0.96653734918617 -21.338484058860182 0 0 0
236 0 5 0 -3.953407031046719 0.9964866928261861 -23.419026686430207 0 0 0
230 0 5 0 -5.860409718165974 1.0342223454041477 -25.46106963386079 0 0 0
234 0 5 0 -1.9157197281774987 0.9597507667947938 -25.334911736326283 0 0 0
261 0 5 0 -7.991840774358884 2.952099924859206 -21.423546211248432 0 -1 0
5 0 5 0 -7.994102987206511 2.946550543263776 -25.357213077214393 0 -1 0
263 0 5 0 -5.920802535561229 2.97421564548411 -19.50520800704631 0 -1 0
267 0 5 0 -1.9369964586174842 2.9797295943319138 -19.416295949092326 0 -1 0
265 0 5 0 -3.9638329579038802 3.007638893311825 -21.421150148617627 0 -1 0
7 0 5 0 -5.951504491151999 3.003493969459458 -23.422270332921023 0 -1 0
11 0 5 0 -1.8970867047242095 2.9918701982594533 -23.309149389124453 0 -1 0
9 0 5 0 -3.8430059083352277 2.9933870361359047 -25.413378047665148 0 -1 0
264 0 5 0 -8.010470424742753 5.013870662758942 -19.47331102017077 0 -1 0
8 0 5 0 -7.9319388815235525 5.038798726092037 -23.362628167282416 0 -1 0
262 0 5 0 -5.992855088333931 4.947693377672094 -21.472873072872623 0 -1 0
268 0 5 0 -3.941724210830903 5.015398483600649 -19.478665667160165 0 -1 0
266 0 5 0 -1.8050066574592027 4.982503314971434 -21.384888013941513 0 -1 0
12 0 5 0 -3.8789548989863283 5.006397499655043 -23.325868787949098 0 -1 0
10 0 5 0 -1.8719361478150691 4.994502779647456 -25.283387633883617 0 -1 0
6 0 5 0 -5.936109884555022 5.03567761574096 -25.453710957219638 0 -1 0
628 0 5 0 -5.9017551195339015 0.93704643952303 -17.468247106224354 0 0 0
630 0 5 0 -2.0195591553960326 0.858971017071456 -17.48795779244348 0 0 0
493 0 5 0 0.060219710568184766 -1.0589094105853385 -21.312615837343607 0 0 0
237 0 5 0 0.11232503307595598 -1.0205298990712746 -25.354406445974682 0 0 0
496 0 5 0 0.07507393006108684 0.9426629542273005 -19.427860152172453 0 0 0
240 0 5 0 0.058211936751531544 0.9814859381342036 -23.272901653113053 0 0 0
495 0 5 0 2.100370410154881 -1.0833582721011108 -19.376175800348044 0 0 0
497 0 5 0 4.1640127292720415 -1.0379487207522433 -21.34520817637947 0 0 0
243 0 5 0 6.174378286309882 -0.9922629909294762 -23.38262582211021 0 0 0
239 0 5 0 2.0895023450384214 -1.0178684639912172 -23.389473212473593 0 0 0
241 0 5 0 3.99053236727706 -1.0039373820089217 -25.373792358843442 0 0 0
499 0 5 0 6.166873151798054 -1.0819061410163298 -19.372001116577415 0 0 0
494 0 5 0 2.1326064586715865 0.9193127001194472 -21.354377852435196 0 0 0
500 0 5 0 4.1828394480048825 0.9253932410237142 -19.387179841729854 0 0 0
498 0 5 0 6.133515509291424 0.9854810279997195 -21.38719746462831 0 0 0
244 0 5 0 4.156538651825139 0.9653608701727252 -23.412496898049273 0 0 0
242 0 5 0 6.253778759089226 0.8882461115323829 -25.483419464669876 0 0 0
238 0 5 0 2.0817219295668554 1.0201012310342152 -25.36718330171435 0 0 0
269 0 5 0 0.14793698421090448 3.000779315644576 -21.392097124899337 0 -1 0
13 0 5 0 0.09945150076659999 2.9818187334203325 -25.332110173394756 0 -1 0
271 0 5 0 2.0846265210213852 2.9019634499978726 -19.466284223822246 0 -1 0
275 0 5 0 6.200216691270933 3.024738307712236 -19.37835997331101 0 -1 0
273 0 5 0 4.184542765653942 2.98029685871058 -21.303372983476276 0 -1 0
15 0 5 0 2.1917826845684223 2.9388544941912027 -23.32723411500017 0 -1 0
19 0 5 0 6.181412163931611 2.8783330303800843 -23.380444173091014 0 -1 0
17 0 5 0 4.264166745741648 2.9006393820579386 -25.45205753735873 0 -1 0
16 0 5 0 0.1936720069324958 4.980222699451131 -23.31917230259604 0 -1 0
272 0 5 0 0.08644620909284628 5.016507987376263 -19.418361613953955 0 -1 0
270 0 5 0 2.2031616100431726 5.034072675184219 -21.30806800728641 0 -1 0
276 0 5 0 4.1960916158463375 4.997739816687128 -19.417681541128417 0 -1 0
274 0 5 0 6.1635476110864955 5.01115179197914 -21.36176740757438 0 -1 0
20 0 5 0 4.183530379411605 5.030088387853016 -23.33888140548834 0 -1 0
18 0 5 0 6.220577706411289 5.011996463101078 -25.325126994073724 0 -1 0
14 0 5 0 2.2001496975242296 4.97542515273701 -25.30980773908651 0 -1 0
631 0 5 0 0.12198045183469211 -1.0982387369961 -17.446917988741923 0 0 0
633 0 5 0 4.158075562462092 -1.0943566940313634 -17.453951233649462 0 0 0
632 0 5 0 2.127657197446109 0.9647425317658264 -17.437835705514154 0 0 0
519 0 5 0 0.0346088869792835 2.940282499817876 -17.404024237427883 0 -1 0
521 0 5 0 4.121100778446706 3.029544131498087 -17.431975943646307 0 -1 0
520 0 5 0 2.097003278508888 4.92724650006196 -17.498397632549302 0 -1 0
504 0 5 0 8.180475356727058 1.0024982991940312 -19.42660070471437 0 0 0
21 0 5 0 8.16937976769488 2.935680114677419 -25.26956983497846 0 -1 0
501 0 5 0 8.131224667987155 -1.0346425525689846 -21.39751479278894 0 0 0
245 0 5 0 8.178765943024844 -1.1641474532484257 -25.467969148548736 0 0 0
248 0 5 0 8.185463142734585 0.8318275787026109 -23.418235788949517 0 0 0
503 0 5 0 10.155361298645577 -1.0605925281387796 -19.464707478100514 0 0 0
507 0 5 0 14.288058130049526 -1.0341976154784696 -19.54316549984502 0 0 0
505 0 5 0 12.233934282883036 -1.1012234849215925 -21.509525573913212 0 0 0
251 0 5 0 14.236894626044903 -0.9602264737574777 -23.32728574071718 0 0 0
247 0 5 0 10.177412021665681 -1.0743437003319112 -23.40291427519992 0 0 0
249 0 5 0 12.247891681699551 -1.0291305965713893 -25.335912347534936 0 0 0
502 0 5 0 10.180944308285666 0.923045264143884 -21.462725474232354 0 0 0
508 0 5 0 12.178141026349824 0.936568532312767 -19.512731526199964 0 0 0
506 0 5 0 14.237190262221649 1.053442092189673 -21.406397808926563 0 0 0
252 0 5 0 12.19115655750956 0.9614913955285198 -23.34717931641846 0 0 0
250 0 5 0 14.33264624200077 0.9578684782605343 -25.462659583103445 0 0 0