LAMMPS data file via write_data, version 2 Aug 2023, timestep = 0, units = real

1680 atoms
5 atom types
812 bonds
1 bond types
406 angles
1 angle types

-12.120000000000001 12.120000000000001 xlo xhi
-12.120000000000001 12.120000000000001 ylo yhi
-28.28 28.28 zlo zhi

Masses

1 15.9994
2 1.008
3 28.99
4 35.453
5 26.9815

Atoms # full

1 0 5 0 -12.120000000000001 -12.120000000000001 -16.16 0 0 0
2 0 5 0 -10.1 -10.1 -16.16 0 0 0
3 0 5 0 -10.1 -12.120000000000001 -14.14 0 0 0
4 0 5 0 -12.120000000000001 -10.1 -14.14 0 0 0
5 0 5 0 -8.08 -12.120000000000001 -16.16 0 0 0
6 0 5 0 -6.0600000000000005 -10.1 -16.16 0 0 0
7 0 5 0 -6.0600000000000005 -12.120000000000001 -14.14 0 0 0
8 0 5 0 -8.08 -10.1 -14.14 0 0 0
25 0 5 0 -12.120000000000001 -8.08 -16.16 0 0 0
26 0 5 0 -10.1 -6.0600000000000005 -16.16 0 0 0
27 0 5 0 -10.1 -8.08 -14.14 0 0 0
28 0 5 0 -12.120000000000001 -6.0600000000000005 -14.14 0 0 0
29 0 5 0 -8.08 -8.08 -16.16 0 0 0
30 0 5 0 -6.0600000000000005 -6.0600000000000005 -16.16 0 0 0
31 0 5 0 -6.0600000000000005 -8.08 -14.14 0 0 0
32 0 5 0 -8.08 -6.0600000000000005 -14.14 0 0 0
9 0 5 0 -4.04 -12.120000000000001 -16.16 0 0 0
10 0 5 0 -2.02 -10.1 -16.16 0 0 0
11 0 5 0 -2.02 -12.120000000000001 -14.14 0 0 0
12 0 5 0 -4.04 -10.1 -14.14 0 0 0
13 0 5 0 0 -12.120000000000001 -16.16 0 0 0
14 0 5 0 2.02 -10.1 -16.16 0 0 0
15 0 5 0 2.02 -12.120000000000001 -14.14 0 0 0
16 0 5 0 0 -10.1 -14.14 0 0 0
17 0 5 0 4.04 -12.120000000000001 -16.16 0 0 0
20 0 5 0 4.04 -10.1 -14.14 0 0 0
33 0 5 0 -4.04 -8.08 -16.16 0 0 0
34 0 5 0 -2.02 -6.0600000000000005 -16.16 0 0 0
35 0 5 0 -2.02 -8.08 -14.14 0 0 0
36 0 5 0 -4.04 -6.0600000000000005 -14.14 0 0 0
37 0 5 0 0 -8.08 -16.16 0 0 0
38 0 5 0 2.02 -6.0600000000000005 -16.16 0 0 0
39 0 5 0 2.02 -8.08 -14.14 0 0 0
40 0 5 0 0 -6.0600000000000005 -14.14 0 0 0
41 0 5 0 4.04 -8.08 -16.16 0 0 0
44 0 5 0 4.04 -6.0600000000000005 -14.14 0 0 0
18 0 5 0 6.0600000000000005 -10.1 -16.16 0 0 0
19 0 5 0 6.0600000000000005 -12.120000000000001 -14.14 0 0 0
21 0 5 0 8.08 -12.120000000000001 -16.16 0 0 0
22 0 5 0 10.1 -10.1 -16.16 0 0 0
23 0 5 0 10.1 -12.120000000000001 -14.14 0 0 0
24 0 5 0 8.08 -10.1 -14.14 0 0 0
42 0 5 0 6.0600000000000005 -6.0600000000000005 -16.16 0 0 0
43 0 5 0 6.0600000000000005 -8.08 -14.14 0 0 0
45 0 5 0 8.08 -8.08 -16.16 0 0 0
46 0 5 0 10.1 -6.0600000000000005 -16.16 0 0 0
47 0 5 0 10.1 -8.08 -14.14 0 0 0
48 0 5 0 8.08 -6.0600000000000005 -14.14 0 0 0
49 0 5 0 -12.120000000000001 -4.04 -16.16 0 0 0
50 0 5 0 -10.1 -2.02 -16.16 0 0 0
51 0 5 0 -10.1 -4.04 -14.14 0 0 0
52 0 5 0 -12.120000000000001 -2.02 -14.14 0 0 0
53 0 5 0 -8.08 -4.04 -16.16 0 0 0
54 0 5 0 -6.0600000000000005 -2.02 -16.16 0 0 0
55 0 5 0 -6.0600000000000005 -4.04 -14.14 0 0 0
56 0 5 0 -8.08 -2.02 -14.14 0 0 0
73 0 5 0 -12.120000000000001 0 -16.16 0 0 0
74 0 5 0 -10.1 2.02 -16.16 0 0 0
75 0 5 0 -10.1 0 -14.14 0 0 0
76 0 5 0 -12.120000000000001 2.02 -14.14 0 0 0
77 0 5 0 -8.08 0 -16.16 0 0 0
78 0 5 0 -6.0600000000000005 2.02 -16.16 0 0 0
79 0 5 0 -6.0600000000000005 0 -14.14 0 0 0
80 0 5 0 -8.08 2.02 -14.14 0 0 0
97 0 5 0 -12.120000000000001 4.04 -16.16 0 0 0
99 0 5 0 -10.1 4.04 -14.14 0 0 0
101 0 5 0 -8.08 4.04 -16.16 0 0 0
103 0 5 0 -6.0600000000000005 4.04 -14.14 0 0 0
57 0 5 0 -4.04 -4.04 -16.16 0 0 0
58 0 5 0 -2.02 -2.02 -16.16 0 0 0
59 0 5 0 -2.02 -4.04 -14.14 0 0 0
60 0 5 0 -4.04 -2.02 -14.14 0 0 0
61 0 5 0 0 -4.04 -16.16 0 0 0
62 0 5 0 2.02 -2.02 -16.16 0 0 0
63 0 5 0 2.02 -4.04 -14.14 0 0 0
64 0 5 0 0 -2.02 -14.14 0 0 0
65 0 5 0 4.04 -4.04 -16.16 0 0 0
68 0 5 0 4.04 -2.02 -14.14 0 0 0
81 0 5 0 -4.04 0 -16.16 0 0 0
82 0 5 0 -2.02 2.02 -16.16 0 0 0
83 0 5 0 -2.02 0 -14.14 0 0 0
84 0 5 0 -4.04 2.02 -14.14 0 0 0
85 0 5 0 0 0 -16.16 0 0 0
86 0 5 0 2.02 2.02 -16.16 0 0 0
87 0 5 0 2.02 0 -14.14 0 0 0
88 0 5 0 0 2.02 -14.14 0 0 0
89 0 5 0 4.04 0 -16.16 0 0 0
92 0 5 0 4.04 2.02 -14.14 0 0 0
105 0 5 0 -4.04 4.04 -16.16 0 0 0
107 0 5 0 -2.02 4.04 -14.14 0 0 0
109 0 5 0 0 4.04 -16.16 0 0 0
111 0 5 0 2.02 4.04 -14.14 0 0 0
113 0 5 0 4.04 4.04 -16.16 0 0 0
66 0 5 0 6.0600000000000005 -2.02 -16.16 0 0 0
67 0 5 0 6.0600000000000005 -4.04 -14.14 0 0 0
69 0 5 0 8.08 -4.04 -16.16 0 0 0
70 0 5 0 10.1 -2.02 -16.16 0 0 0
71 0 5 0 10.1 -4.04 -14.14 0 0 0
72 0 5 0 8.08 -2.02 -14.14 0 0 0
90 0 5 0 6.0600000000000005 2.02 -16.16 0 0 0
91 0 5 0 6.0600000000000005 0 -14.14 0 0 0
93 0 5 0 8.08 0 -16.16 0 0 0
94 0 5 0 10.1 2.02 -16.16 0 0 0
95 0 5 0 10.1 0 -14.14 0 0 0
96 0 5 0 8.08 2.02 -14.14 0 0 0
115 0 5 0 6.0600000000000005 4.04 -14.14 0 0 0
117 0 5 0 8.08 4.04 -16.16 0 0 0
119 0 5 0 10.1 4.04 -14.14 0 0 0
98 0 5 0 -10.1 6.0600000000000005 -16.16 0 0 0
100 0 5 0 -12.120000000000001 6.0600000000000005 -14.14 0 0 0
102 0 5 0 -6.0600000000000005 6.0600000000000005 -16.16 0 0 0
104 0 5 0 -8.08 6.0600000000000005 -14.14 0 0 0
121 0 5 0 -12.120000000000001 8.08 -16.16 0 0 0
122 0 5 0 -10.1 10.1 -16.16 0 0 0
123 0 5 0 -10.1 8.08 -14.14 0 0 0
124 0 5 0 -12.120000000000001 10.1 -14.14 0 0 0
125 0 5 0 -8.08 8.08 -16.16 0 0 0
126 0 5 0 -6.0600000000000005 10.1 -16.16 0 0 0
127 0 5 0 -6.0600000000000005 8.08 -14.14 0 0 0
128 0 5 0 -8.08 10.1 -14.14 0 0 0
106 0 5 0 -2.02 6.0600000000000005 -16.16 0 0 0
108 0 5 0 -4.04 6.0600000000000005 -14.14 0 0 0
110 0 5 0 2.02 6.0600000000000005 -16.16 0 0 0
112 0 5 0 0 6.0600000000000005 -14.14 0 0 0
116 0 5 0 4.04 6.0600000000000005 -14.14 0 0 0
129 0 5 0 -4.04 8.08 -16.16 0 0 0
130 0 5 0 -2.02 10.1 -16.16 0 0 0
131 0 5 0 -2.02 8.08 -14.14 0 0 0
132 0 5 0 -4.04 10.1 -14.14 0 0 0
133 0 5 0 0 8.08 -16.16 0 0 0
134 0 5 0 2.02 10.1 -16.16 0 0 0
135 0 5 0 2.02 8.08 -14.14 0 0 0
136 0 5 0 0 10.1 -14.14 0 0 0
137 0 5 0 4.04 8.08 -16.16 0 0 0
140 0 5 0 4.04 10.1 -14.14 0 0 0
114 0 5 0 6.0600000000000005 6.0600000000000005 -16.16 0 0 0
118 0 5 0 10.1 6.0600000000000005 -16.16 0 0 0
120 0 5 0 8.08 6.0600000000000005 -14.14 0 0 0
138 0 5 0 6.0600000000000005 10.1 -16.16 0 0 0
139 0 5 0 6.0600000000000005 8.08 -14.14 0 0 0
141 0 5 0 8.08 8.08 -16.16 0 0 0
142 0 5 0 10.1 10.1 -16.16 0 0 0
143 0 5 0 10.1 8.08 -14.14 0 0 0
144 0 5 0 8.08 10.1 -14.14 0 0 0
145 0 5 0 -12.120000000000001 -12.120000000000001 -12.120000000000001 0 0 0
146 0 5 0 -10.1 -10.1 -12.120000000000001 0 0 0
147 0 5 0 -8.08 -12.120000000000001 -12.120000000000001 0 0 0
148 0 5 0 -6.0600000000000005 -10.1 -12.120000000000001 0 0 0
157 0 5 0 -12.120000000000001 -8.08 -12.120000000000001 0 0 0
158 0 5 0 -10.1 -6.0600000000000005 -12.120000000000001 0 0 0
159 0 5 0 -8.08 -8.08 -12.120000000000001 0 0 0
160 0 5 0 -6.0600000000000005 -6.0600000000000005 -12.120000000000001 0 0 0
433 1 1 -1.1128 -12.047880060880722 -11.73749237561409 -8.041301083114908 0 0 0
436 2 1 -1.1128 -10.160997837656867 -10.48452317920874 -8.042156071129059 0 0 0
437 2 2 0.5564 -9.345572701797444 -10.002601845197363 -7.895990973950098 0 0 0
438 2 2 0.5564 -10.793429460545688 -9.812874975593896 -8.301852954920845 0 0 0
446 5 2 0.5564 -8.606922280341074 -11.889376815358187 -7.54927207753329 0 0 0
448 6 1 -1.1128 -5.890597827530319 -10.010130465929144 -8.420935984179494 0 0 0
449 6 2 0.5564 -5.559801073207253 -10.59500653391808 -7.737544403588154 0 0 0
450 6 2 0.5564 -6.72960109926243 -9.694863000152775 -8.081519612232354 0 0 0
452 7 2 0.5564 -5.82331613384759 -11.377579693637502 -6.132794963450505 0 0 0
454 8 1 -1.1128 -8.056309606139418 -10.45784053654539 -5.903795358123909 0 0 0
455 8 2 0.5564 -7.675216358862636 -9.644875236319907 -5.568555268771028 0 0 0
456 8 2 0.5564 -8.508474034997946 -10.197284227134702 -6.707649373105065 0 0 0
459 9 2 0.5564 -4.167126118985828 -11.377375292110145 -7.868218454290495 0 0 0
508 26 1 -1.1128 -10.153345543094337 -6.033244784465186 -8.466586841438836 0 0 0
509 26 2 0.5564 -10.191553912573747 -6.8210537594222895 -7.922135099336046 0 0 0
510 26 2 0.5564 -9.955100544331914 -5.325701456112527 -7.851278059225118 0 0 0
511 27 1 -1.1128 -10.317600480798784 -8.400713051517197 -6.112954167377706 0 0 0
512 27 2 0.5564 -9.43041169190638 -8.346191106225126 -5.754549409673236 0 0 0
513 27 2 0.5564 -10.551987827294834 -7.493095842257678 -6.31249642294906 0 0 0
514 28 1 -1.1128 -11.993429332677009 -6.3625800997523845 -6.273157509619646 0 0 0
515 28 2 0.5564 -12.087657656414235 -5.44945038513948 -6.548558503257339 0 0 0
523 31 1 -1.1128 -5.898576932340328 -7.866651351692971 -5.774630201330091 0 0 0
524 31 2 0.5564 -5.456520475435035 -8.291984737548804 -6.510978053764491 0 0 0
525 31 2 0.5564 -6.824902592224639 -8.081363910758226 -5.894391744905419 0 0 0
526 32 1 -1.1128 -7.977993547707247 -6.117538472245335 -6.433222430197221 0 0 0
527 32 2 0.5564 -8.558496942298332 -5.441051669501343 -6.081211102849025 0 0 0
528 32 2 0.5564 -7.703509509994421 -6.621409858253323 -5.665566466953756 0 0 0
538 36 1 -1.1128 -4.348597719160726 -5.9308376734278365 -5.857279710874162 0 0 0
539 36 2 0.5564 -4.3154373435978375 -6.174890049483214 -6.783492098631016 0 0 0
583 51 1 -1.1128 -10.208824626762198 -4.089972160717627 -5.687614503151265 0 0 0
584 51 2 0.5564 -9.367421121281758 -4.31394055408095 -6.088125251745454 0 0 0
595 55 1 -1.1128 -6.1053565836625845 -4.30038291670368 -6.3483652050912935 0 0 0
596 55 2 0.5564 -5.32339017696731 -4.143802905773308 -5.816818594738894 0 0 0
868 146 1 -1.1128 -10.279459416443053 -10.424258449963393 -4.16514691357463 0 0 0
869 146 2 0.5564 -9.378699363441894 -10.147487886747001 -4.339960935478565 0 0 0
879 149 2 0.5564 -8.791036103047832 -11.793763662153554 -4.062392901354952 0 0 0
881 150 2 0.5564 -6.653480605146218 -9.777538585233717 -4.435355128716207 0 0 0
889 153 1 -1.1128 -4.409049258261608 -12.082450989776822 -4.164111608271814 0 0 0
937 169 1 -1.1128 -12.100824077383221 -8.223675304252383 -4.403318958271902 0 0 0
938 169 2 0.5564 -11.958585802152173 -7.31860149117528 -4.122000231662082 0 0 0
942 170 2 0.5564 -10.374373345948998 -6.387549615989159 -4.69569386614342 0 0 0
949 173 1 -1.1128 -8.071116707989882 -8.008686488044262 -4.424508055358534 0 0 0
952 174 1 -1.1128 -5.683138193292887 -6.146112330317133 -4.099756336172857 0 0 0
953 174 2 0.5564 -6.228680525463668 -5.528613688814046 -4.589255622741802 0 0 0
961 177 1 -1.1128 -4.246046254717933 -8.336252693381587 -4.251873718406497 0 0 0
963 177 2 0.5564 -4.374371167933836 -7.3884983349934 -4.190084307466378 0 0 0
1035 201 2 0.5564 -4.285450289571514 -4.473780694292389 -4.643400691587666 0 0 0
149 0 5 0 -4.04 -12.120000000000001 -12.120000000000001 0 0 0
150 0 5 0 -2.02 -10.1 -12.120000000000001 0 0 0
151 0 5 0 0 -12.120000000000001 -12.120000000000001 0 0 0
152 0 5 0 2.02 -10.1 -12.120000000000001 0 0 0
153 0 5 0 4.04 -12.120000000000001 -12.120000000000001 0 0 0
161 0 5 0 -4.04 -8.08 -12.120000000000001 0 0 0
162 0 5 0 -2.02 -6.0600000000000005 -12.120000000000001 0 0 0
163 0 5 0 0 -8.08 -12.120000000000001 0 0 0
164 0 5 0 2.02 -6.0600000000000005 -12.120000000000001 0 0 0
165 0 5 0 4.04 -8.08 -12.120000000000001 0 0 0
460 10 1 -1.1128 -2.03508263692026 -10.459245885527459 -7.925967917967966 0 0 0
461 10 2 0.5564 -1.2612863296261863 -9.984714266972855 -8.233522104754623 0 0 0
462 10 2 0.5564 -2.7636310334535534 -9.856039847499686 -8.08050997727741 0 0 0
465 11 2 0.5564 -2.4525322384618544 -11.617640109652786 -5.644002003296276 0 0 0
470 13 2 0.5564 0.4186801876285158 -11.98247026309627 -8.726760189293174 0 0 0
471 13 2 0.5564 -0.3395753992098645 -11.87471340274066 -7.418919850958755 0 0 0
478 16 1 -1.1128 -0.323869471413249 -9.998260542760239 -6.2543415108181 0 0 0
479 16 2 0.5564 -0.25705191382940407 -10.549948629580484 -5.473504633577312 0 0 0
480 16 2 0.5564 0.580921385242653 -9.751790827659276 -6.45215385560459 0 0 0
490 20 1 -1.1128 3.888131821066095 -9.755849290351637 -5.952727823850598 0 0 0
491 20 2 0.5564 3.4186063231507404 -10.540356845372136 -6.240172188768571 0 0 0
2389 0 3 1 0.5272160400483816 -10.920014906823642 -7.767025989967876 0 0 0
2386 0 3 1 3.579045955920149 -10.654618850077792 -7.532675504951121 0 0 0
532 34 1 -1.1128 -2.0573656877124797 -6.4284365032078545 -7.954026498874793 0 0 0
533 34 2 0.5564 -2.4258731390054202 -5.634580550674803 -7.563481309467186 0 0 0
534 34 2 0.5564 -1.5767611732821 -6.116982946117344 -8.722492191658022 0 0 0
535 35 1 -1.1128 -1.894323542193826 -7.740745292962873 -5.91126316459449 0 0 0
536 35 2 0.5564 -1.8001409981213827 -8.617141445240634 -5.534978707481553 0 0 0
537 35 2 0.5564 -2.3655354596847915 -7.882113261796493 -6.7337581279239584 0 0 0
540 36 2 0.5564 -3.4559649372414367 -6.074272277088951 -5.539228190494822 0 0 0
541 37 1 -1.1128 -0.3809791439954713 -8.152523951562795 -8.131050394613512 0 0 0
542 37 2 0.5564 0.040221556839677874 -7.727368809166805 -7.382475993160841 0 0 0
543 37 2 0.5564 0.3407575871557933 -8.3601072392704 -8.726473612225647 0 0 0
553 41 1 -1.1128 3.878027163617764 -8.434488341048477 -8.113373504985132 0 0 0
555 41 2 0.5564 3.449359055934434 -7.6147619438150285 -7.862742649674249 0 0 0
609 59 2 0.5564 -1.6935498382891288 -4.750938150668134 -6.037613221680626 0 0 0
621 63 2 0.5564 1.65309941065796 -4.719042221675421 -5.930425508982007 0 0 0
627 65 2 0.5564 3.719006226452305 -4.740704163213261 -7.944056618405984 0 0 0
890 153 2 0.5564 -3.721992964816585 -11.414309612829138 -4.155667080573915 0 0 0
964 178 1 -1.1128 -2.1210052663741803 -5.791381962750535 -4.305806810915231 0 0 0
966 178 2 0.5564 -2.4000757078203763 -6.707190729061505 -4.261789419363679 0 0 0
974 181 2 0.5564 0.7387349307449784 -7.825562880500298 -4.08515224045279 0 0 0
975 181 2 0.5564 -0.7714590479268708 -7.952891457396041 -4.074616264513426 0 0 0
976 182 1 -1.1128 1.9199185683629694 -5.84653243577389 -4.352131832027516 0 0 0
978 182 2 0.5564 2.4322492391879607 -6.656312575290083 -4.3348996563915545 0 0 0
987 185 2 0.5564 3.7279948152671754 -8.777798870324371 -4.208028066922963 0 0 0
1059 209 2 0.5564 3.741495545488811 -4.643967492235575 -4.43827413794979 0 0 0
154 0 5 0 6.0600000000000005 -10.1 -12.120000000000001 0 0 0
155 0 5 0 8.08 -12.120000000000001 -12.120000000000001 0 0 0
156 0 5 0 10.1 -10.1 -12.120000000000001 0 0 0
166 0 5 0 6.0600000000000005 -6.0600000000000005 -12.120000000000001 0 0 0
167 0 5 0 8.08 -8.08 -12.120000000000001 0 0 0
168 0 5 0 10.1 -6.0600000000000005 -12.120000000000001 0 0 0
481 17 1 -1.1128 4.236442520073409 -11.782649958714126 -8.055175406314977 0 0 0
484 18 1 -1.1128 5.820847540398535 -10.409543134349738 -8.079648512433513 0 0 0
485 18 2 0.5564 6.779246944351612 -10.408528934372438 -8.079986004349522 0 0 0
486 18 2 0.5564 5.5799055152498545 -9.481927931277824 -8.080365483216966 0 0 0
489 19 2 0.5564 6.625843035850088 -11.783595285796565 -6.4832699576412915 0 0 0
492 20 2 0.5564 4.813261855783164 -10.003793864276224 -5.987099987380834 0 0 0
493 21 1 -1.1128 8.237501564996215 -11.81263811303571 -7.896334810142223 0 0 0
494 21 2 0.5564 8.019684600438458 -11.892071074336428 -8.826268536065658 0 0 0
496 22 1 -1.1128 10.341502226492638 -9.797319863627395 -8.135429091139585 0 0 0
497 22 2 0.5564 10.241539428638328 -10.576409234059353 -8.684571833898765 0 0 0
498 22 2 0.5564 9.716958344869033 -9.92627090231325 -7.41999907496165 0 0 0
499 23 1 -1.1128 10.154301164839863 -12.066892384069138 -5.676278826324148 0 0 0
501 23 2 0.5564 9.557530431061487 -11.590961372912162 -6.255828567437638 0 0 0
516 28 2 0.5564 11.961086989091243 -6.367969515108136 -5.358283987123016 -1 0 0
554 41 2 0.5564 4.792613780447802 -8.190749715136496 -8.263883845340619 0 0 0
556 42 1 -1.1128 5.735976790748972 -6.267901883335476 -8.149258510467856 0 0 0
557 42 2 0.5564 5.96477914738739 -5.785712475662295 -7.353222445503151 0 0 0
558 42 2 0.5564 6.479244061863639 -6.126385641002231 -8.737519044028993 0 0 0
565 45 1 -1.1128 7.879009061516797 -8.412798053273825 -8.036883032518576 0 0 0
566 45 2 0.5564 8.825601028964785 -8.308829775018609 -8.144979305717946 0 0 0
567 45 2 0.5564 7.535389909518417 -7.5183721717075676 -8.058137661763478 0 0 0
568 46 1 -1.1128 10.348007260034658 -5.76458748399408 -8.014924514161219 0 0 0
569 46 2 0.5564 10.247008374312252 -6.569244932723844 -7.504183703880173 0 0 0
570 46 2 0.5564 9.70498436565309 -5.846167583282077 -8.720891781958608 0 0 0
571 47 1 -1.1128 9.785873693867323 -7.9993043006033435 -6.2786866305797515 0 0 0
572 47 2 0.5564 10.517204105295377 -7.417866383964551 -6.065106813145579 0 0 0
573 47 2 0.5564 9.996922200837298 -8.822829315432106 -5.8362065562746706 0 0 0
644 71 2 0.5564 10.203611105729408 -4.799432324037274 -6.218219956000735 0 0 0
916 162 1 -1.1128 5.911416243767529 -10.319225335424926 -4.327878610166989 0 0 0
918 162 2 0.5564 6.8250987348625305 -10.26466273358259 -4.043747009589675 0 0 0
925 165 1 -1.1128 8.438243108558046 -11.962958099744446 -4.043269745371178 0 0 0
986 185 2 0.5564 4.119259683705131 -7.313876165759079 -4.17884683520683 0 0 0
989 186 2 0.5564 6.689558646028159 -6.518685488223527 -4.115959229882468 0 0 0
990 186 2 0.5564 5.715239874308006 -5.358408971681341 -4.0776087053167895 0 0 0
997 189 1 -1.1128 7.805561776397058 -8.305151412740628 -4.20432126236906 0 0 0
999 189 2 0.5564 8.751600140563905 -8.328209037069294 -4.355989643994351 0 0 0
1071 213 2 0.5564 8.223564573253014 -4.225098502712515 -4.786747405486129 0 0 0
169 0 5 0 -12.120000000000001 -4.04 -12.120000000000001 0 0 0
170 0 5 0 -10.1 -2.02 -12.120000000000001 0 0 0
171 0 5 0 -8.08 -4.04 -12.120000000000001 0 0 0
172 0 5 0 -6.0600000000000005 -2.02 -12.120000000000001 0 0 0
181 0 5 0 -12.120000000000001 0 -12.120000000000001 0 0 0
182 0 5 0 -10.1 2.02 -12.120000000000001 0 0 0
183 0 5 0 -8.08 0 -12.120000000000001 0 0 0
184 0 5 0 -6.0600000000000005 2.02 -12.120000000000001 0 0 0
193 0 5 0 -12.120000000000001 4.04 -12.120000000000001 0 0 0
195 0 5 0 -8.08 4.04 -12.120000000000001 0 0 0
2390 0 3 1 -8.72833669288472 3.3252026864910516 -7.172298763269698 0 0 0
580 50 1 -1.1128 -10.14644006088729 -1.6335011480924402 -8.118378805595315 0 0 0
581 50 2 0.5564 -9.564323916393041 -2.207107844512219 -8.619025100040343 0 0 0
582 50 2 0.5564 -10.589236022719668 -2.219391007395341 -7.502596094364343 0 0 0
585 51 2 0.5564 -10.723754251956043 -3.7160872852014233 -6.404260245103282 0 0 0
592 54 1 -1.1128 -6.145796697641322 -1.7990307977699989 -7.768836838877607 0 0 0
593 54 2 0.5564 -5.429333753795202 -2.4287851018350124 -7.861685783981693 0 0 0
594 54 2 0.5564 -6.604869548563476 -1.8321841003949888 -8.6094773771407 0 0 0
597 55 2 0.5564 -6.751253239370106 -3.6758141775230118 -6.014816200169815 0 0 0
598 56 1 -1.1128 -8.089720349222425 -2.148426937588555 -5.690645142156463 0 0 0
599 56 2 0.5564 -8.627161911584418 -2.4414680151472794 -6.428082633683116 0 0 0
600 56 2 0.5564 -7.523117739193157 -1.4701050472641655 -6.061272224160422 0 0 0
650 73 2 0.5564 -11.389079565477655 -0.2758159005356056 -8.126767273914528 0 0 0
652 74 1 -1.1128 -10.270101921801096 1.6800172791063315 -8.17213066912441 0 0 0
653 74 2 0.5564 -9.539108835361668 1.8261400593160615 -7.569778778049486 0 0 0
654 74 2 0.5564 -10.490789242837234 2.553842661577607 -8.498090552826104 0 0 0
660 76 2 0.5564 -11.479483143273931 1.608650680381844 -5.8782479064785385 0 0 0
667 79 1 -1.1128 -5.893569372048537 0.06575654009912903 -5.712166853198444 0 0 0
668 79 2 0.5564 -6.563530168055575 -0.5845312438216548 -5.928520475532371 0 0 0
669 79 2 0.5564 -5.7229004598958895 0.5187747037225257 -6.539312671269187 0 0 0
673 81 1 -1.1128 -4.150181340562081 -0.37432593544712117 -8.107406946994885 0 0 0
675 81 2 0.5564 -4.535644106066237 0.3845314804302572 -8.547949132577372 0 0 0
727 99 1 -1.1128 -10.024428435180742 3.6562728629219508 -6.052692650230587 0 0 0
733 101 1 -1.1128 -7.9712779476560005 3.762154291762087 -8.332966899510353 0 0 0
739 103 1 -1.1128 -5.988585500266991 3.9247275590403903 -6.426910354287117 0 0 0
740 103 2 0.5564 -5.925150361333361 3.4033723310031307 -5.625227580774621 0 0 0
1013 194 2 0.5564 -10.19070581628012 -1.5760708523715863 -4.678126662410267 0 0 0
1024 198 1 -1.1128 -6.394555895375747 -2.2034331929770072 -4.126229873498645 0 0 0
1026 198 2 0.5564 -6.059160412467094 -1.3876757239312227 -4.501160747448079 0 0 0
1093 221 1 -1.1128 -7.875602098242702 -0.32037797745885993 -4.1326845392532325 0 0 0
1094 221 2 0.5564 -7.681484774528958 0.5880657643321543 -4.368436511959622 0 0 0
1097 222 2 0.5564 -6.02321375528423 2.2796172445851455 -4.7773953681802785 0 0 0
1179 249 2 0.5564 -4.076346614962063 3.998907657936186 -4.8207011419259675 0 0 0
173 0 5 0 -4.04 -4.04 -12.120000000000001 0 0 0
174 0 5 0 -2.02 -2.02 -12.120000000000001 0 0 0
175 0 5 0 0 -4.04 -12.120000000000001 0 0 0
176 0 5 0 2.02 -2.02 -12.120000000000001 0 0 0
177 0 5 0 4.04 -4.04 -12.120000000000001 0 0 0
185 0 5 0 -4.04 0 -12.120000000000001 0 0 0
186 0 5 0 -2.02 2.02 -12.120000000000001 0 0 0
187 0 5 0 0 0 -12.120000000000001 0 0 0
188 0 5 0 2.02 2.02 -12.120000000000001 0 0 0
189 0 5 0 4.04 0 -12.120000000000001 0 0 0
197 0 5 0 -4.04 4.04 -12.120000000000001 0 0 0
199 0 5 0 0 4.04 -12.120000000000001 0 0 0
201 0 5 0 4.04 4.04 -12.120000000000001 0 0 0
2406 0 4 -1 0.724070155790109 0.967108364350679 -7.233146905430195 0 0 0
604 58 1 -1.1128 -2.2180481749726395 -2.0179906343976994 -8.417318628806479 0 0 0
605 58 2 0.5564 -1.8601880935773594 -2.775287644137415 -7.951520430889132 0 0 0
606 58 2 0.5564 -1.9817637314500012 -1.2667217214648856 -7.87116094030439 0 0 0
607 59 1 -1.1128 -2.2167094543250236 -4.0121047384197315 -5.723045671550996 0 0 0
608 59 2 0.5564 -2.1497407073858477 -3.356957110912136 -6.419341106768379 0 0 0
616 62 1 -1.1128 2.024763783197497 -2.411136945250881 -8.080413436157961 0 0 0
617 62 2 0.5564 2.628922398372075 -1.8165099666527909 -8.527561827672058 0 0 0
618 62 2 0.5564 1.406313818430428 -1.8323530880963284 -7.632024736169982 0 0 0
619 63 1 -1.1128 2.3060701892301014 -4.031025441921851 -5.793364896082388 0 0 0
620 63 2 0.5564 2.100830400111939 -3.3699323364027283 -6.456209594935606 0 0 0
625 65 1 -1.1128 4.016374814626574 -3.8534491585652235 -7.736996197286316 0 0 0
635 68 2 0.5564 3.5716170162846055 -1.3950839146261558 -6.111024869494147 0 0 0
674 81 2 0.5564 -3.4341745533716823 -0.010205544983136139 -7.584643920427743 0 0 0
676 82 1 -1.1128 -2.3020054753477597 1.7491552133445656 -8.091268891491898 0 0 0
677 82 2 0.5564 -1.3538521538819595 1.6093883914473985 -8.092305467652247 0 0 0
678 82 2 0.5564 -2.4041423707702805 2.701456395208036 -8.056425640855855 0 0 0
685 85 1 -1.1128 0.03450670345087545 -0.07097348360880747 -7.696877269610137 0 0 0
686 85 2 0.5564 -0.7537514939893237 0.1868680458693096 -8.177186877930346 0 0 0
687 85 2 0.5564 0.7192447905384483 -0.11589456226050211 -8.365935852459517 0 0 0
688 86 1 -1.1128 2.0245084583984294 2.408928560990445 -8.121535800808113 0 0 0
689 86 2 0.5564 1.96693529581436 1.745824818780467 -8.811107637542467 0 0 0
690 86 2 0.5564 2.06855624578721 1.9052466202290879 -7.307356561649421 0 0 0
691 87 1 -1.1128 1.861252043579153 -0.3501131318915086 -5.987675345079815 0 0 0
692 87 2 0.5564 2.259902812119128 -0.04387796584437148 -6.803658278613702 0 0 0
693 87 2 0.5564 1.9388451443017192 0.39399109773588004 -5.388666376306484 0 0 0
694 88 1 -1.1128 -0.17666051981256267 1.6974146837096127 -5.926805597139422 0 0 0
695 88 2 0.5564 0.35693186853048653 2.3210300557948673 -5.431918144478386 0 0 0
696 88 2 0.5564 -0.18027134871792388 2.0415552604955196 -6.821276258382193 0 0 0
747 105 2 0.5564 -3.9360718269866313 3.264606786117893 -8.101638593292545 0 0 0
753 107 2 0.5564 -2.163169449591763 3.668537415572987 -6.733811536762614 0 0 0
769 113 1 -1.1128 3.848428587244426 3.7099909213781896 -7.993945503650203 0 0 0
1048 206 1 -1.1128 1.7588052056965173 -2.310179570283118 -4.064167559228571 0 0 0
1049 206 2 0.5564 2.695489683306394 -2.345718363622318 -4.263891727953105 0 0 0
1057 209 1 -1.1128 3.822345808725159 -3.733829734164868 -4.149075184340616 0 0 0
1110 226 2 0.5564 -2.716389284812989 2.071886189454697 -4.393346455113851 0 0 0
1117 229 1 -1.1128 -0.2989802240769215 -0.0707791201874241 -4.282099393341677 0 0 0
1119 229 2 0.5564 0.550012720716698 -0.5144876322689528 -4.252820143060055 0 0 0
178 0 5 0 6.0600000000000005 -2.02 -12.120000000000001 0 0 0
179 0 5 0 8.08 -4.04 -12.120000000000001 0 0 0
180 0 5 0 10.1 -2.02 -12.120000000000001 0 0 0
190 0 5 0 6.0600000000000005 2.02 -12.120000000000001 0 0 0
191 0 5 0 8.08 0 -12.120000000000001 0 0 0
192 0 5 0 10.1 2.02 -12.120000000000001 0 0 0
203 0 5 0 8.08 4.04 -12.120000000000001 0 0 0
626 65 2 0.5564 4.384618958921121 -3.5258466782215163 -8.5589471843077 0 0 0
634 68 1 -1.1128 4.366390419384667 -1.8841258042059406 -5.892612809476895 0 0 0
636 68 2 0.5564 4.181992564330727 -2.7807902811679037 -6.176362321028959 0 0 0
640 70 1 -1.1128 10.347269709167845 -2.180580641454922 -8.337065211605879 0 0 0
641 70 2 0.5564 10.545016339029862 -1.8541168772429772 -7.457947334962033 0 0 0
642 70 2 0.5564 9.407713951802291 -2.0253024813021008 -8.44498745343209 0 0 0
643 71 1 -1.1128 10.187864389223506 -3.8575462771192393 -6.394666195803118 0 0 0
645 71 2 0.5564 9.908524505047085 -3.463021398843487 -5.567113848196149 0 0 0
646 72 1 -1.1128 7.713124562522429 -2.093327915717523 -6.1741770758609835 0 0 0
647 72 2 0.5564 8.41424181012541 -2.72593429126359 -6.010548414764932 0 0 0
648 72 2 0.5564 8.11263362735216 -1.240737793018887 -5.995274509374087 0 0 0
649 73 1 -1.1128 11.896047277896011 -0.3199193010238772 -8.057465724005269 -1 0 0
651 73 2 0.5564 11.613032287581644 0.5957352015594827 -8.055767002080204 -1 0 0
658 76 1 -1.1128 11.875657474599869 1.7569242492557167 -6.215238056388945 -1 0 0
659 76 2 0.5564 11.723825668674063 2.6944250703624393 -6.086514037132518 -1 0 0
700 90 1 -1.1128 5.880951883468587 2.1695768231288852 -8.393973757580508 0 0 0
701 90 2 0.5564 6.612436940337417 1.5506268195072797 -8.374972057803417 0 0 0
702 90 2 0.5564 5.686611176193998 2.3397963573638347 -7.471054184616076 0 0 0
703 91 1 -1.1128 5.685422843835549 -0.03833812238944545 -5.954013600158305 0 0 0
704 91 2 0.5564 6.0296712450120555 0.2071969033807386 -6.81409275314799 0 0 0
705 91 2 0.5564 6.464905911152397 -0.16885878099129314 -5.4118936466937075 0 0 0
712 94 1 -1.1128 9.751469120569839 1.8450779426901356 -8.049349152538262 0 0 0
713 94 2 0.5564 10.607872861539652 1.430598237434153 -8.1647171133585 0 0 0
714 94 2 0.5564 9.940658017890508 2.7843238198757114 -8.025933734103237 0 0 0
715 95 1 -1.1128 9.856696669014584 -0.16051173185424816 -6.320864807071692 0 0 0
716 95 2 0.5564 10.78116380736842 0.06224397826251815 -6.4403259460008115 0 0 0
717 95 2 0.5564 9.662139523616995 0.09826775359172998 -5.418809246927498 0 0 0
770 113 2 0.5564 4.737721499995128 3.798998856879469 -8.340018130058553 0 0 0
1060 210 1 -1.1128 5.798374867514741 -2.310795988461659 -4.040978594235088 0 0 0
1061 210 2 0.5564 6.734755442606602 -2.363306653847879 -4.238373144847133 0 0 0
1069 213 1 -1.1128 7.7174215509972015 -3.893253089401371 -4.0436313975936145 0 0 0
1130 233 2 0.5564 4.481208039682968 -0.38966485263073525 -4.555754824352987 0 0 0
1133 234 2 0.5564 6.801885868062886 1.8112999850388865 -4.176220163793065 0 0 0
1143 237 2 0.5564 7.9514696880199445 0.3570043708763251 -4.724493804265246 0 0 0
1144 238 1 -1.1128 9.909299546298497 2.3355646944604165 -4.170626318436007 0 0 0
1146 238 2 0.5564 10.295231690291294 1.6272379873229461 -4.68817167363583 0 0 0
1153 241 1 -1.1128 12.115096045046963 3.648880281578128 -4.043505936025393 -1 0 0
194 0 5 0 -10.1 6.0600000000000005 -12.120000000000001 0 0 0
196 0 5 0 -6.0600000000000005 6.0600000000000005 -12.120000000000001 0 0 0
205 0 5 0 -12.120000000000001 8.08 -12.120000000000001 0 0 0
206 0 5 0 -10.1 10.1 -12.120000000000001 0 0 0
207 0 5 0 -8.08 8.08 -12.120000000000001 0 0 0
208 0 5 0 -6.0600000000000005 10.1 -12.120000000000001 0 0 0
435 1 2 0.5564 -11.439243700977466 11.774252738095155 -7.9081465094144345 0 -1 0
445 5 1 -1.1128 -7.761224507510936 12.033942027847898 -7.870268778391431 0 -1 0
447 5 2 0.5564 -7.87185321214799 11.97543478751029 -8.82045914407528 0 -1 0
451 7 1 -1.1128 -5.936505677435888 11.945461933738187 -6.387561582332267 0 -1 0
453 7 2 0.5564 -6.420178188716523 11.552117759899314 -5.65964345421723 0 -1 0
457 9 1 -1.1128 -4.242700206455977 11.90838618260712 -7.820879963933476 0 -1 0
2396 0 4 -1 -8.270883085723447 7.667978246038768 -5.579745884267496 0 0 0
724 98 1 -1.1128 -9.871208455358289 5.876075090222134 -7.821471411322339 0 0 0
725 98 2 0.5564 -10.659528854075003 5.5400830141576245 -8.250646007249198 0 0 0
726 98 2 0.5564 -9.769262690566709 6.763841895620243 -8.167882581428463 0 0 0
728 99 2 0.5564 -9.902477154391189 4.264505201369752 -6.7832485122836585 0 0 0
729 99 2 0.5564 -10.37309441042807 4.199221935708297 -5.344058837485756 0 0 0
734 101 2 0.5564 -7.438883658762953 4.177083719736791 -7.652584322606263 0 0 0
735 101 2 0.5564 -8.829838393581046 4.180761988501122 -8.254448777883384 0 0 0
736 102 1 -1.1128 -5.798413622032799 6.350565564072745 -8.067542298081591 0 0 0
737 102 2 0.5564 -5.640127697958767 5.413009890652787 -7.947269751429918 0 0 0
738 102 2 0.5564 -6.741458680008436 6.416424545274469 -8.225187950488491 0 0 0
741 103 2 0.5564 -6.26626413839965 4.7919001099564795 -6.127862064938263 0 0 0
742 104 1 -1.1128 -8.380333019307884 5.8977884639005085 -6.251045726384168 0 0 0
743 104 2 0.5564 -8.09908019652688 5.730955922453706 -5.350160432469277 0 0 0
744 104 2 0.5564 -7.760586784165238 6.551255613645786 -6.578793841146556 0 0 0
746 105 2 0.5564 -4.483000255720624 4.675061313050665 -8.19381639863318 0 0 0
793 121 1 -1.1128 -11.875997364223977 8.308650315833935 -8.282959900727692 0 0 0
794 121 2 0.5564 -11.9038852785573 8.17689364374329 -7.334069494203453 0 0 0
799 123 1 -1.1128 -9.731073532956959 8.20145321411329 -6.106404236839883 0 0 0
800 123 2 0.5564 -10.337840499910163 7.896426925777462 -6.7826611194211095 0 0 0
801 123 2 0.5564 -10.231085967132875 8.142119860109249 -5.290934643739009 0 0 0
803 124 2 0.5564 -11.525799170130826 10.178535648941942 -6.563253212734953 0 0 0
805 125 1 -1.1128 -7.840101848526216 7.845918093285552 -8.281656917482119 0 0 0
806 125 2 0.5564 -7.743899879343864 8.144987704908242 -7.376210558756605 0 0 0
807 125 2 0.5564 -8.65599827212992 8.249094201806205 -8.582132523761278 0 0 0