LAMMPS data file via write_data, version 2 Aug 2023, timestep = 0, units = real

1647 atoms
5 atom types
790 bonds
1 bond types
395 angles
1 angle types

-12.120000000000001 12.120000000000001 xlo xhi
-12.120000000000001 12.120000000000001 ylo yhi
-20.2 20.2 zlo zhi

Masses

1 15.9994
2 1.008
3 28.99
4 35.453
5 26.9815

Atoms # full

1 0 5 0 -12.120000000000001 -12.120000000000001 -16.16 0 0 0
2 0 5 0 -10.1 -10.1 -16.16 0 0 0
3 0 5 0 -10.1 -12.120000000000001 -14.14 0 0 0
4 0 5 0 -12.120000000000001 -10.1 -14.14 0 0 0
5 0 5 0 -8.08 -12.120000000000001 -16.16 0 0 0
6 0 5 0 -6.0600000000000005 -10.1 -16.16 0 0 0
7 0 5 0 -6.0600000000000005 -12.120000000000001 -14.14 0 0 0
8 0 5 0 -8.08 -10.1 -14.14 0 0 0
9 0 5 0 -4.04 -12.120000000000001 -16.16 0 0 0
10 0 5 0 -2.02 -10.1 -16.16 0 0 0
11 0 5 0 -2.02 -12.120000000000001 -14.14 0 0 0
12 0 5 0 -4.04 -10.1 -14.14 0 0 0
13 0 5 0 -12.120000000000001 -8.08 -16.16 0 0 0
14 0 5 0 -10.1 -6.0600000000000005 -16.16 0 0 0
15 0 5 0 -10.1 -8.08 -14.14 0 0 0
16 0 5 0 -12.120000000000001 -6.0600000000000005 -14.14 0 0 0
17 0 5 0 -8.08 -8.08 -16.16 0 0 0
18 0 5 0 -6.0600000000000005 -6.0600000000000005 -16.16 0 0 0
19 0 5 0 -6.0600000000000005 -8.08 -14.14 0 0 0
20 0 5 0 -8.08 -6.0600000000000005 -14.14 0 0 0
21 0 5 0 -4.04 -8.08 -16.16 0 0 0
22 0 5 0 -2.02 -6.0600000000000005 -16.16 0 0 0
23 0 5 0 -2.02 -8.08 -14.14 0 0 0
24 0 5 0 -4.04 -6.0600000000000005 -14.14 0 0 0
25 0 5 0 -12.120000000000001 -4.04 -16.16 0 0 0
26 0 5 0 -10.1 -2.02 -16.16 0 0 0
27 0 5 0 -10.1 -4.04 -14.14 0 0 0
28 0 5 0 -12.120000000000001 -2.02 -14.14 0 0 0
29 0 5 0 -8.08 -4.04 -16.16 0 0 0
30 0 5 0 -6.0600000000000005 -2.02 -16.16 0 0 0
31 0 5 0 -6.0600000000000005 -4.04 -14.14 0 0 0
32 0 5 0 -8.08 -2.02 -14.14 0 0 0
33 0 5 0 -4.04 -4.04 -16.16 0 0 0
34 0 5 0 -2.02 -2.02 -16.16 0 0 0
35 0 5 0 -2.02 -4.04 -14.14 0 0 0
36 0 5 0 -4.04 -2.02 -14.14 0 0 0
37 0 5 0 -12.120000000000001 -12.120000000000001 -12.120000000000001 0 0 0
38 0 5 0 -10.1 -10.1 -12.120000000000001 0 0 0
39 0 5 0 -8.08 -12.120000000000001 -12.120000000000001 0 0 0
40 0 5 0 -6.0600000000000005 -10.1 -12.120000000000001 0 0 0
41 0 5 0 -4.04 -12.120000000000001 -12.120000000000001 0 0 0
42 0 5 0 -2.02 -10.1 -12.120000000000001 0 0 0
43 0 5 0 -12.120000000000001 -8.08 -12.120000000000001 0 0 0
44 0 5 0 -10.1 -6.0600000000000005 -12.120000000000001 0 0 0
45 0 5 0 -8.08 -8.08 -12.120000000000001 0 0 0
46 0 5 0 -6.0600000000000005 -6.0600000000000005 -12.120000000000001 0 0 0
47 0 5 0 -4.04 -8.08 -12.120000000000001 0 0 0
48 0 5 0 -2.02 -6.0600000000000005 -12.120000000000001 0 0 0
49 0 5 0 -12.120000000000001 -4.04 -12.120000000000001 0 0 0
50 0 5 0 -10.1 -2.02 -12.120000000000001 0 0 0
51 0 5 0 -8.08 -4.04 -12.120000000000001 0 0 0
52 0 5 0 -6.0600000000000005 -2.02 -12.120000000000001 0 0 0
53 0 5 0 -4.04 -4.04 -12.120000000000001 0 0 0
54 0 5 0 -2.02 -2.02 -12.120000000000001 0 0 0
2392 0 4 -1 -5.748855561403957 -0.3754205162895019 -4.861744851759516 0 0 0
648 72 2 0.5564 -4.00736637264784 -1.240737793018887 -1.9552745093740864 0 0 0
647 72 2 0.5564 -3.705758189874589 -2.72593429126359 -1.970548414764931 0 0 0
436 2 1 -1.1128 -10.160997837656867 -10.48452317920874 -8.042156071129059 0 0 0
437 2 2 0.5564 -9.345572701797444 -10.002601845197363 -7.895990973950098 0 0 0
438 2 2 0.5564 -10.793429460545688 -9.812874975593896 -8.301852954920845 0 0 0
646 72 1 -1.1128 -4.406875437477571 -2.093327915717523 -2.1341770758609826 0 0 0
2380 0 3 1 -3.223634608641097 -3.2268674309118044 -6.05394088978597 0 0 0
645 71 2 0.5564 -2.211475494952915 -3.463021398843487 -1.5271138481961484 0 0 0
2379 0 3 1 -7.634364633222281 -8.446390566866096 -6.0308382123107265 0 0 0
644 71 2 0.5564 -1.9163888942705916 -4.799432324037274 -2.178219956000734 0 0 0
643 71 1 -1.1128 -1.932135610776493 -3.8575462771192393 -2.3546661958031176 0 0 0
642 70 2 0.5564 -2.712286048197708 -2.0253024813021008 -4.404987453432089 0 0 0
446 5 2 0.5564 -8.606922280341074 -11.889376815358187 -7.54927207753329 0 0 0
641 70 2 0.5564 -1.5749836609701378 -1.8541168772429772 -3.417947334962033 0 0 0
448 6 1 -1.1128 -5.890597827530319 -10.010130465929144 -8.420935984179494 0 0 0
449 6 2 0.5564 -5.559801073207253 -10.59500653391808 -7.737544403588154 0 0 0
450 6 2 0.5564 -6.72960109926243 -9.694863000152775 -8.081519612232354 0 0 0
640 70 1 -1.1128 -1.772730290832154 -2.180580641454922 -4.297065211605878 0 0 0
2378 0 3 1 -0.580017065508299 -3.866819997982505 -1.4691373946280857 0 0 0
639 69 2 0.5564 -4.729474759862713 -3.6739038951536296 -3.984303253878083 0 0 0
454 8 1 -1.1128 -8.056309606139418 -10.45784053654539 -5.903795358123909 0 0 0
455 8 2 0.5564 -7.675216358862636 -9.644875236319907 -5.568555268771028 0 0 0
456 8 2 0.5564 -8.508474034997946 -10.197284227134702 -6.707649373105065 0 0 0
638 69 2 0.5564 -3.3573870269734876 -4.16338741081098 -4.402382872676494 0 0 0
637 69 1 -1.1128 -4.0331382131638 -4.2827086940353905 -3.7333138734454234 0 0 0
459 9 2 0.5564 -4.167126118985828 -11.377375292110145 -7.868218454290495 0 0 0
460 10 1 -1.1128 -2.03508263692026 -10.459245885527459 -7.925967917967966 0 0 0
461 10 2 0.5564 -1.2612863296261863 -9.984714266972855 -8.233522104754623 0 0 0
462 10 2 0.5564 -2.7636310334535534 -9.856039847499686 -8.08050997727741 0 0 0
636 68 2 0.5564 -7.938007435669273 -2.7807902811679037 -2.1363623210289586 0 0 0
635 68 2 0.5564 -8.548382983715394 -1.3950839146261558 -2.071024869494147 0 0 0
2377 0 3 1 -9.728254590112837 -3.974896026409649 -0.425010577973449 0 0 0
2000 523 2 0.5564 -0.7051863061471361 -0.054196075412379974 -3.7049159366182076 0 0 0
1892 487 2 0.5564 -0.013111509288248724 -0.27901579798535964 -7.348915501943328 0 0 0
1693 421 1 -1.1128 -0.1439239038963912 -4.399611240136833 -0.054558595605746864 0 0 0
634 68 1 -1.1128 -7.753609580615333 -1.8841258042059406 -1.8526128094768946 0 0 0
1586 385 2 0.5564 -0.09311772116343334 -3.265029716447875 -3.9829349483793477 0 0 0
633 67 2 0.5564 -5.792692208628158 -4.706178030569628 -2.33186103677484 0 0 0
472 14 1 -1.1128 -9.896462274867202 -5.732260799590282 -8.015421478318526 0 0 0
473 14 2 0.5564 -10.133904805569776 -6.410136718390511 -7.380885550790144 0 0 0
474 14 2 0.5564 -10.269632919563021 -6.037602482019208 -8.843692970891329 0 0 0
1585 385 1 -1.1128 -0.2056422831985682 -4.14006336804114 -4.357347677220337 0 0 0
1559 376 2 0.5564 -0.5659317059123136 -6.370764821267015 -2.4623265768705958 0 0 0
1558 376 1 -1.1128 -0.18897586179559595 -5.902677693465017 -1.7157816737520166 0 0 0
632 67 2 0.5564 -6.257305139841491 -3.2852478506868645 -2.0826589610457447 0 0 0
631 67 1 -1.1128 -6.1300026515303525 -4.128574118743507 -1.645480002179415 0 0 0
480 16 2 0.5564 -11.539078614757347 -5.711790827659277 -6.45215385560459 0 0 0
481 17 1 -1.1128 -7.8835574799265915 -7.742649958714125 -8.055175406314977 0 0 0
482 17 2 0.5564 -8.205354869367545 -8.288529172030119 -7.336153233764992 0 0 0
483 17 2 0.5564 -8.151087650705865 -8.208820869255758 -8.848671359920033 0 0 0
484 18 1 -1.1128 -6.299152459601466 -6.369543134349739 -8.079648512433513 0 0 0
485 18 2 0.5564 -5.340753055648389 -6.368528934372438 -8.079986004349522 0 0 0
486 18 2 0.5564 -6.5400944847501465 -5.441927931277825 -8.080365483216966 0 0 0
487 19 1 -1.1128 -6.313102794693438 -8.21579397999165 -6.325537087459359 0 0 0
488 19 2 0.5564 -6.3727402411566505 -8.280610734211786 -5.371192954899351 0 0 0
489 19 2 0.5564 -5.494156964149913 -7.743595285796563 -6.4832699576412915 0 0 0
490 20 1 -1.1128 -8.231868178933905 -5.715849290351639 -5.952727823850598 0 0 0
491 20 2 0.5564 -8.70139367684926 -6.500356845372138 -6.240172188768571 0 0 0
492 20 2 0.5564 -7.306738144216835 -5.963793864276225 -5.987099987380834 0 0 0
493 21 1 -1.1128 -3.882498435003786 -7.7726381130357085 -7.896334810142223 0 0 0
494 21 2 0.5564 -4.100315399561541 -7.852071074336427 -8.826268536065658 0 0 0
495 21 2 0.5564 -4.137186165434673 -8.615290812627865 -7.517396653792119 0 0 0
496 22 1 -1.1128 -1.7784977735073622 -5.757319863627396 -8.135429091139585 0 0 0
497 22 2 0.5564 -1.8784605713616713 -6.536409234059354 -8.684571833898765 0 0 0
498 22 2 0.5564 -2.4030416551309663 -5.8862709023132505 -7.41999907496165 0 0 0
499 23 1 -1.1128 -1.9656988351601359 -8.026892384069138 -5.676278826324148 0 0 0
500 23 2 0.5564 -1.5318315959013507 -8.662146243018702 -6.247892606238215 0 0 0
501 23 2 0.5564 -2.5624695689385133 -7.550961372912161 -6.255828567437638 0 0 0
1551 373 2 0.5564 -0.39909362977722806 -8.520643573313851 -3.531019208644926 0 0 0
1549 373 1 -1.1128 -0.0044833021518534966 -8.286223360598227 -4.372359444044229 0 0 0
1486 352 1 -1.1128 -0.19774018885033723 -1.9549806984694469 -5.728816844266029 0 0 0
505 25 1 -1.1128 -11.897029968140133 -4.043995127338232 -8.401371091341398 0 0 0
1479 349 2 0.5564 -0.47516027574236 -3.4181301028501636 -8.077884964469343 0 0 0
507 25 2 0.5564 -11.617362912417072 -4.157559340249831 -7.491748616910954 0 0 0
508 26 1 -1.1128 -10.153345543094337 -1.9932447844651853 -8.466586841438836 0 0 0
509 26 2 0.5564 -10.191553912573747 -2.7810537594222886 -7.922135099336046 0 0 0
510 26 2 0.5564 -9.955100544331914 -1.2857014561125264 -7.851278059225118 0 0 0
511 27 1 -1.1128 -10.317600480798784 -4.360713051517196 -6.112954167377706 0 0 0
512 27 2 0.5564 -9.43041169190638 -4.306191106225126 -5.754549409673236 0 0 0
513 27 2 0.5564 -10.551987827294834 -3.453095842257678 -6.31249642294906 0 0 0
514 28 1 -1.1128 -11.993429332677009 -2.3225800997523844 -6.273157509619646 0 0 0
515 28 2 0.5564 -12.087657656414235 -1.40945038513948 -6.548558503257339 0 0 0
1477 349 1 -1.1128 -0.24104736358576476 -4.347121065835793 -8.104161827915915 0 0 0
1450 340 1 -1.1128 -0.22134245348072362 -5.856487145062326 -5.8097980602348365 0 0 0
1407 325 2 0.5564 -0.6382768367944104 -11.679160924285068 -8.183766656178781 0 0 0
1159 243 1 -1.1128 -3.9552569094113754 -0.23533193069357156 -0.30074651368473776 0 0 0
1147 239 1 -1.1128 -7.696462226129168 -0.07659156291850897 -0.006594164382768719 0 0 0
1058 209 2 0.5564 -1.553505738490253 -0.5616873803159426 -2.301774131659188 0 0 0
1057 209 1 -1.1128 -2.3802688954865596 -0.1502297565514309 -2.045462083406356 0 0 0
523 31 1 -1.1128 -5.898576932340328 -3.826651351692971 -5.774630201330091 0 0 0
524 31 2 0.5564 -5.456520475435035 -4.251984737548804 -6.510978053764491 0 0 0
525 31 2 0.5564 -6.824902592224639 -4.041363910758225 -5.894391744905419 0 0 0
526 32 1 -1.1128 -7.977993547707247 -2.0775384722453345 -6.433222430197221 0 0 0
527 32 2 0.5564 -8.558496942298332 -1.4010516695013422 -6.081211102849025 0 0 0
528 32 2 0.5564 -7.703509509994421 -2.5814098582533234 -5.665566466953756 0 0 0
1046 205 2 0.5564 -5.337234230884486 -0.29905245982178863 -1.9938554064977712 0 0 0
1045 205 1 -1.1128 -6.295408258135449 -0.3122387483129057 -2.0099555710155474 0 0 0
1041 203 2 0.5564 -8.395705379679534 -0.016136475001898853 -3.3240575041136933 0 0 0
532 34 1 -1.1128 -2.0573656877124797 -2.3884365032078536 -7.954026498874793 0 0 0
533 34 2 0.5564 -2.4258731390054202 -1.5945805506748028 -7.563481309467186 0 0 0
534 34 2 0.5564 -1.5767611732821 -2.0769829461173437 -8.722492191658022 0 0 0
535 35 1 -1.1128 -1.894323542193826 -3.700745292962873 -5.91126316459449 0 0 0
536 35 2 0.5564 -1.8001409981213827 -4.577141445240634 -5.534978707481553 0 0 0
537 35 2 0.5564 -2.3655354596847915 -3.8421132617964933 -6.7337581279239584 0 0 0
538 36 1 -1.1128 -4.348597719160726 -1.890837673427836 -5.857279710874162 0 0 0
539 36 2 0.5564 -4.3154373435978375 -2.1348900494832135 -6.783492098631016 0 0 0
540 36 2 0.5564 -3.4559649372414367 -2.0342722770889505 -5.539228190494822 0 0 0
1040 203 2 0.5564 -7.949607440607826 -0.327909760133419 -4.738555108895785 0 0 0
1035 201 2 0.5564 -10.408923185363834 -0.45871759649823013 -2.5737585775476077 0 0 0
1029 199 2 0.5564 -11.555604722856923 -0.4278332045614891 -3.7069524805478418 0 0 0
950 173 2 0.5564 -1.2658709453960766 -0.19289892952850343 -6.141151971565393 0 0 0
949 173 1 -1.1128 -2.207798512179975 -0.34290269045512184 -6.047333579762746 0 0 0
944 171 2 0.5564 -3.353392135532634 -0.03891436409332105 -7.706420579770813 0 0 0
943 171 1 -1.1128 -4.141869142974945 -0.37342387206263356 -8.136464714497642 0 0 0
932 167 2 0.5564 -7.837244119242217 -0.5120970474844222 -8.619752227244364 0 0 0
926 165 2 0.5564 -9.415326539209774 -0.31613170542844077 -5.850741147349891 0 0 0
925 165 1 -1.1128 -10.327920957328033 -0.3067854305951092 -6.143340934031521 0 0 0
921 163 2 0.5564 -11.797308255806282 -0.08225634735338616 -7.371757201554937 0 0 0
750 106 2 0.5564 -2.0509166457948935 -1.3267893903786745 -0.3619490871949027 0 0 0
747 105 2 0.5564 -4.484442440763223 -3.3963193463004395 -0.025496331134798392 0 0 0
745 105 1 -1.1128 -4.275659523979162 -4.326486090957258 -0.12410190548877355 0 0 0
555 41 2 0.5564 -8.670640944065566 -11.65476194381503 -3.8227426496742494 0 0 0
556 42 1 -1.1128 -6.384023209251029 -10.307901883335475 -4.109258510467856 0 0 0
557 42 2 0.5564 -6.155220852612611 -9.825712475662293 -3.3132224455031514 0 0 0
558 42 2 0.5564 -5.640755938136362 -10.166385641002229 -4.697519044028993 0 0 0
725 98 2 0.5564 -10.83779193496094 -2.187931256328771 -0.1999210453014707 0 0 0
618 62 2 0.5564 -10.713686181569571 -1.8323530880963284 -3.5920247361699826 0 0 0
724 98 1 -1.1128 -9.903310366141595 -2.0260937469674913 -0.338063645901985 0 0 0
710 93 2 0.5564 -3.55258253485751 -8.448307640291189 -0.48916251622258006 0 0 0
702 90 2 0.5564 -6.154550682688953 -5.7945900939081705 -0.7301518199329362 0 0 0
697 89 1 -1.1128 -8.147161483189466 -8.19604262616897 -0.3674702961976655 0 0 0
617 62 2 0.5564 -9.491077601627925 -1.8165099666527909 -4.487561827672057 0 0 0
616 62 1 -1.1128 -10.095236216802503 -2.411136945250881 -4.040413436157961 0 0 0
567 45 2 0.5564 -4.584610090481583 -11.558372171707568 -4.018137661763477 0 0 0
568 46 1 -1.1128 -1.7719927399653426 -9.804587483994078 -3.974924514161218 0 0 0
569 46 2 0.5564 -1.8729916256877477 -10.609244932723843 -3.464183703880173 0 0 0
570 46 2 0.5564 -2.4150156343469096 -9.886167583282075 -4.680891781958609 0 0 0
690 86 2 0.5564 -10.43375494658001 -6.500046902830827 -0.5545000351148515 0 0 0
687 85 2 0.5564 -11.948744560258087 -7.562382977503868 -0.5614696094901678 0 0 0
676 82 1 -1.1128 -1.8543095947719261 -10.326130677860315 -0.27280502313152366 0 0 0
675 81 2 0.5564 -4.714644134970836 -11.865701835957175 -0.3044530586377811 0 0 0
609 59 2 0.5564 -1.6935498382891288 -8.790938150668133 -1.997613221680626 0 0 0
608 59 2 0.5564 -2.1497407073858477 -7.396957110912136 -2.3793411067683787 0 0 0
612 60 2 0.5564 -4.527763971868101 -6.196498551815816 -2.616622479546019 0 0 0
578 49 2 0.5564 -11.353806629135462 -8.239538692735422 -4.038819125955176 0 0 0
611 60 2 0.5564 -3.710608061671802 -5.5745690116890625 -1.5019614135492816 0 0 0
580 50 1 -1.1128 -10.14644006088729 -5.67350114809244 -4.078378805595314 0 0 0
581 50 2 0.5564 -9.564323916393041 -6.247107844512219 -4.579025100040344 0 0 0
582 50 2 0.5564 -10.589236022719668 -6.259391007395341 -3.4625960943643426 0 0 0
583 51 1 -1.1128 -10.208824626762198 -8.129972160717628 -1.6476145031512643 0 0 0
584 51 2 0.5564 -9.367421121281758 -8.35394055408095 -2.0481252517454536 0 0 0
585 51 2 0.5564 -10.723754251956043 -7.756087285201423 -2.3642602451032824 0 0 0
607 59 1 -1.1128 -2.2167094543250236 -8.05210473841973 -1.6830456715509952 0 0 0
610 60 1 -1.1128 -3.8816279664600977 -6.408932436495123 -1.9414161069046993 0 0 0
606 58 2 0.5564 -1.9817637314500012 -5.306721721464886 -3.8311609403043896 0 0 0
605 58 2 0.5564 -1.8601880935773594 -6.815287644137416 -3.911520430889132 0 0 0
604 58 1 -1.1128 -2.2180481749726395 -6.0579906343977 -4.377318628806479 0 0 0
600 56 2 0.5564 -7.523117739193157 -5.510105047264166 -2.0212722241604224 0 0 0
592 54 1 -1.1128 -6.145796697641322 -5.83903079777 -3.7288368388776068 0 0 0
593 54 2 0.5564 -5.429333753795202 -6.468785101835013 -3.821685783981694 0 0 0
594 54 2 0.5564 -6.604869548563476 -5.872184100394989 -4.569477377140699 0 0 0
595 55 1 -1.1128 -6.1053565836625845 -8.34038291670368 -2.3083652050912926 0 0 0
596 55 2 0.5564 -5.32339017696731 -8.183802905773309 -1.7768185947388933 0 0 0
597 55 2 0.5564 -6.751253239370106 -7.715814177523011 -1.9748162001698142 0 0 0
598 56 1 -1.1128 -8.089720349222425 -6.188426937588556 -1.650645142156463 0 0 0
599 56 2 0.5564 -8.627161911584418 -6.48146801514728 -2.3880826336831147 0 0 0
2396 0 4 -1 -2.7461391265625785 -1.4003001372517545 1.4637288064992653 0 0 0
2395 0 4 -1 -3.3595987126415583 -9.815563366681134 4.844330793453535 0 0 0
2394 0 4 -1 -4.269535712743894 -7.68672408661187 5.618850876213447 0 0 0
915 161 2 0.5564 -4.799792134969242 -4.035535000057577 8.267616378321282 0 0 0
2393 0 4 -1 -11.42431481817007 -3.4191489843368306 4.935346833940292 0 0 0
914 161 2 0.5564 -3.3026471985269006 -3.8086492261531157 8.203668654477276 0 0 0
913 161 1 -1.1128 -4.017560666503857 -4.275815773789307 7.768714967201442 0 0 0
656 75 2 0.5564 -9.317966514626365 -12.118329704817814 1.9895515457146191 0 0 0
657 75 2 0.5564 -10.788710120369263 -11.754023475517823 1.9548579734050195 0 0 0
2381 0 3 1 -6.173118017862141 -4.394526208990499 0.318670331127322 0 0 0
2325 631 2 0.5564 -0.7774859669064185 -0.06360194511034278 8.14304200061683 0 0 0
2217 595 2 0.5564 -0.6500413754830341 -0.06109594872260493 3.6084708292481147 0 0 0
2215 595 1 -1.1128 -0.09503840236244962 -0.16157519693678035 4.383325111681674 0 0 0
909 159 2 0.5564 -8.46349868837711 -3.357945582055138 8.064688012051617 0 0 0
908 159 2 0.5564 -7.415902747652157 -4.453103890597822 8.051254817847354 0 0 0
907 159 1 -1.1128 -8.360598563970733 -4.308950527347041 8.124057170101029 0 0 0
906 158 2 0.5564 -10.70649229607376 -1.6309647954690516 7.774512464347986 0 0 0
2107 559 1 -1.1128 -0.1286444311118377 -0.34963214567030443 0.11924322856200543 0 0 0
905 158 2 0.5564 -9.36166907982348 -2.0437691805406044 8.338473884305015 0 0 0
904 158 1 -1.1128 -10.231838624102757 -2.385266023990344 8.127013651346997 0 0 0
669 79 2 0.5564 -6.494947601422413 -11.6522050392765 1.5677916533957066 0 0 0
670 80 1 -1.1128 -8.118887363028374 -10.46727000577749 2.148885570770748 0 0 0
671 80 2 0.5564 -8.383971640059654 -10.112549154869097 1.2989243928328218 0 0 0
672 80 2 0.5564 -7.737140996911972 -9.720180839353413 2.6121900363964303 0 0 0
1810 460 1 -1.1128 -0.37763213935908335 -2.118902669954603 6.084964048127914 0 0 0
1838 469 2 0.5564 -0.01564205907063579 -11.873099178854197 7.3375031441106575 0 0 0
1740 436 2 0.5564 -0.6390457467903448 -9.764145013040919 5.7577982606868625 0 0 0
1731 433 2 0.5564 -0.24317784222984376 -11.381685153054615 4.130882637662261 0 0 0
677 82 2 0.5564 -1.5448038914639244 -9.480649172680096 0.05567298833653403 0 0 0
678 82 2 0.5564 -2.6608865137641495 -10.493220149459589 0.21713203479498958 0 0 0
679 83 1 -1.1128 -2.375339159840917 -12.035796740257984 2.1601958167434754 0 0 0
680 83 2 0.5564 -1.5616514477055383 -11.546775110859064 2.291727991894341 0 0 0
1855 475 1 -1.1128 -0.2917697530291867 -8.10241141274234 8.3395748722357 0 0 0
682 84 1 -1.1128 -4.3120576910112245 -10.247970576573318 2.258956681702355 0 0 0
683 84 2 0.5564 -3.518902341733395 -10.677752037989373 1.9353472761915687 0 0 0
684 84 2 0.5564 -4.2890399672553805 -9.374277385437308 1.8656960421060764 0 0 0
1856 475 2 0.5564 -0.28668157863980587 -8.416159719938715 7.433999546703476 0 0 0
686 85 2 0.5564 -12.101967788200158 -8.806564202824138 0.2903197702743155 0 0 0
1703 424 2 0.5564 -0.23662456747759913 -1.4416827929072749 1.5487630186981192 0 0 0
688 86 1 -1.1128 -10.17679269409489 -6.248687432429062 0.33393249239476064 0 0 0
689 86 2 0.5564 -9.689452359325099 -5.4312656647401125 0.22056754272009094 0 0 0
1695 421 2 0.5564 -0.631538540857348 -3.5914309242585105 0.11157412648189541 0 0 0
691 87 1 -1.1128 -10.463878724043347 -8.218429819794247 2.057953045731756 0 0 0
692 87 2 0.5564 -9.655337202291921 -8.718749170320839 1.9376546039607239 0 0 0
693 87 2 0.5564 -10.180784073664729 -7.302821009884914 2.06439235030752 0 0 0
1668 412 2 0.5564 -0.41950081894371305 -6.573577656591486 1.604354738321785 0 0 0
1659 409 2 0.5564 -0.6918925232096991 -7.878774023225956 0.3054452039201922 0 0 0
1873 481 1 -1.1128 -0.041455444217633655 -4.39506655750351 8.238808565220285 0 0 0
891 153 2 0.5564 -7.661835662734927 -7.9841359526456195 8.734562908714281 0 0 0
698 89 2 0.5564 -8.379215535904459 -7.357665840185453 0.03478067190868667 0 0 0
699 89 2 0.5564 -7.713622980906075 -8.686291533645578 0.33268962428897875 0 0 0
700 90 1 -1.1128 -6.290746544737596 -6.3752204607018275 0.02007654717796606 0 0 0
701 90 2 0.5564 -5.734702772573453 -6.010189445390004 0.7100752727549702 0 0 0
890 153 2 0.5564 -8.733262505911764 -8.302875028568428 7.711108294332189 0 0 0
703 91 1 -1.1128 -6.264779184824437 -8.22808645886736 2.3185747153775162 0 0 0
704 91 2 0.5564 -5.464614547881458 -8.57892981880636 1.924650800677453 0 0 0
705 91 2 0.5564 -6.4506062672941065 -7.43298372232628 1.8167744839450308 0 0 0
1875 481 2 0.5564 -0.4289457629323644 -4.066987215221143 7.42595019098162 0 0 0
1623 397 2 0.5564 -0.4475317309441308 -11.47993646805466 0.05037811897844221 0 0 0
1268 279 2 0.5564 -3.3178414934211533 -0.27266828227034384 4.169016935785771 0 0 0
709 93 1 -1.1128 -4.048387407908957 -8.306651712303115 0.31869990147258387 0 0 0
889 153 1 -1.1128 -7.84490183135331 -7.952989018785953 7.79432879695353 0 0 0
711 93 2 0.5564 -4.5190300572335325 -7.485040647405697 0.17046261474999616 0 0 0
888 152 2 0.5564 -10.616776098912286 -5.476013873834994 8.013617788227657 0 0 0
887 152 2 0.5564 -9.914392472867064 -6.81887394170931 8.033454785786587 0 0 0
1267 279 1 -1.1128 -4.268624595290438 -0.3169507849932341 4.05685137443819 0 0 0
715 95 1 -1.1128 -2.035331629839894 -8.401495598479345 2.2422982136339846 0 0 0
716 95 2 0.5564 -2.2410933716089034 -8.322713864768202 1.3095677573618363 0 0 0
717 95 2 0.5564 -1.7835749985512026 -7.515790536752455 2.5081340290041787 0 0 0
718 96 1 -1.1128 -4.236300222432184 -6.397235264967611 2.0473783351448014 0 0 0
719 96 2 0.5564 -3.3335048832099834 -6.220340230048321 2.3160775761180044 0 0 0
720 96 2 0.5564 -4.5501948943578325 -5.562424504984071 1.6965440887371943 0 0 0
886 152 1 -1.1128 -9.76883142822065 -5.885112184455698 8.192927425985756 0 0 0
722 97 2 0.5564 -11.505895996861195 -3.8224339448558804 0.4336445035716696 0 0 0
1263 277 2 0.5564 -6.498815972030541 -0.38230954637124137 6.583243617681389 0 0 0
1255 275 1 -1.1128 -8.144407614777393 -0.38553515916877157 4.024990846013281 0 0 0
882 150 2 0.5564 -2.748213605974237 -9.817117747998628 8.126760085293249 0 0 0
726 98 2 0.5564 -9.558897698897464 -1.8459749967037378 0.5379846912034556 0 0 0
727 99 1 -1.1128 -10.251727237963465 -4.396299006867715 1.9648562110019807 0 0 0
728 99 2 0.5564 -9.425791841339139 -4.050894195801276 1.6227205696326874 0 0 0
729 99 2 0.5564 -10.622480920697395 -3.672806797331009 2.4724232193653317 0 0 0
881 150 2 0.5564 -1.2581056457171695 -10.06238202139122 8.25495185365505 0 0 0
731 100 2 0.5564 -11.49354574047314 -1.9947656586963025 1.5515722475774731 0 0 0
880 150 1 -1.1128 -2.0536807483085937 -10.420500230610148 7.8582880610517005 0 0 0
1249 273 1 -1.1128 -9.886955419515575 -0.25706282042856354 6.2638177803321575 0 0 0
1357 309 1 -1.1128 -8.163582658097159 -0.3140874818705991 8.297655616738 0 0 0
1359 309 2 0.5564 -8.161320603493335 -0.2464416210687334 7.3416522385403375 0 0 0
876 148 2 0.5564 -6.162884229338007 -9.477998288668081 7.61628388376757 0 0 0
875 148 2 0.5564 -5.731621401301158 -10.793891814526985 8.232275789766568 0 0 0
1166 245 2 0.5564 -1.3894539104346715 -0.40708262013858476 1.7981855734741827 0 0 0
739 103 1 -1.1128 -6.3960025471168676 -4.235596662478598 2.063072130876135 0 0 0
740 103 2 0.5564 -5.6446793620957365 -4.472971525179777 1.5174557764591334 0 0 0
741 103 2 0.5564 -6.139318090787397 -3.411431812341625 2.4794720926647313 0 0 0
1165 245 1 -1.1128 -2.19580821457357 -0.2284510331694572 2.2844098553992667 0 0 0
1161 243 2 0.5564 -3.9674987116113023 -0.4561886833890864 0.631774784499754 0 0 0
1154 241 2 0.5564 -5.38696272344321 -0.3767405278712703 1.8873588694096188 0 0 0
874 148 1 -1.1128 -6.285494369360835 -10.028109896804933 8.391440326465862 0 0 0
746 105 2 0.5564 -3.3598980352576144 -4.397194562742303 0.14959823662357197 0 0 0
873 147 2 0.5564 -8.715858843130805 -11.777446819741424 7.77859532135833 0 0 0
748 106 1 -1.1128 -2.380671708088664 -2.0722432636776422 0.14211803152560823 0 0 0
749 106 2 0.5564 -1.6284116461164424 -2.6609673459436833 0.21983105566929456 0 0 0
872 147 2 0.5564 -7.325159730483295 -12.102357616996864 8.285939759002288 0 0 0
751 107 1 -1.1128 -1.8115076850259422 -4.127959037542439 2.339069172455388 0 0 0
752 107 2 0.5564 -2.2989985740021934 -3.3223882390677435 2.1603546464369754 0 0 0
753 107 2 0.5564 -1.9494937409718642 -4.6696527233898175 1.5605761811076369 0 0 0
1153 241 1 -1.1128 -6.320982081876579 -0.28481236115017927 2.081491839909266 0 0 0
1142 237 2 0.5564 -10.758792019560333 -0.31389674029435355 2.3027864598883694 0 0 0
1141 237 1 -1.1128 -9.850908504677852 -0.007420889477151818 2.3215117441453055 0 0 0
870 146 2 0.5564 -9.991690027502152 -10.022384790355297 8.851199558538077 0 0 0
758 109 2 0.5564 -12.03743862866742 -11.426342958472732 4.392887799737143 0 0 0
869 146 2 0.5564 -10.544231163689757 -10.026043000400414 7.439925546583 0 0 0
1137 235 2 0.5564 -11.85496287863112 -0.2533225116184534 0.6914383265366589 0 0 0
850 140 1 -1.1128 -8.112185406082228 -2.406314809276066 6.007693764527363 0 0 0
849 139 2 0.5564 -6.8401683789128755 -4.025073429947573 5.9998466289313175 0 0 0
763 111 1 -1.1128 -10.365517514144894 -11.83279132501188 6.0647540712956935 0 0 0
868 146 1 -1.1128 -9.76407880880809 -10.251572209244289 7.948874894878923 0 0 0
765 111 2 0.5564 -9.68334091243474 -11.99042631210163 5.4103002276791985 0 0 0
766 112 1 -1.1128 -12.097747738656523 -9.815744878291536 5.792203739481657 0 0 0
848 139 2 0.5564 -5.35930492811103 -3.704272779106757 5.966085571492932 0 0 0
768 112 2 0.5564 -11.95971543566853 -9.743111629888025 6.737822601951196 0 0 0
864 144 2 0.5564 -3.671747243476255 -1.7298833530103872 6.68667868038746 0 0 0
863 144 2 0.5564 -4.656740412992406 -2.370430507424982 5.729340064495522 0 0 0
771 113 2 0.5564 -8.251804916589286 -11.655095659194497 3.4343177775962475 0 0 0
847 139 1 -1.1128 -5.980526692976096 -4.390653790945671 6.214067799575753 0 0 0
846 138 2 0.5564 -6.737326754540031 -1.6529740300057707 4.177928731358135 0 0 0
845 138 2 0.5564 -5.475353732677461 -2.487365900234578 4.268613490205071 0 0 0
862 144 1 -1.1128 -3.791512343531339 -1.9596861395646308 5.763981255117019 0 0 0
861 143 2 0.5564 -1.529195235130514 -3.87623052722813 6.647191768138342 0 0 0
777 115 2 0.5564 -6.2455364122882635 -11.64219404442013 6.651423400388931 0 0 0
844 138 1 -1.1128 -5.96731951278251 -1.9196600697596513 3.673457778436794 0 0 0
851 140 2 0.5564 -7.332289007992599 -1.9119191162615687 6.264335668696456 0 0 0
852 140 2 0.5564 -8.795525585925173 -1.7417660744623655 5.907970566776182 0 0 0
860 143 2 0.5564 -2.187769498329089 -4.408275252427467 5.390124635189582 0 0 0
859 143 1 -1.1128 -2.3430352665403973 -3.8354942203444025 6.142683596672077 0 0 0
783 117 2 0.5564 -4.608541790835305 -11.73636483940376 4.416945918704634 0 0 0
784 118 1 -1.1128 -2.2915703253080038 -10.377214550035747 3.9908815089748995 0 0 0
785 118 2 0.5564 -1.3481313519622997 -10.494912364255644 4.111714816056442 0 0 0
786 118 2 0.5564 -2.420298322729697 -9.427873085708606 4.017403674968658 0 0 0
858 142 2 0.5564 -2.719384035642555 -1.7944057221256287 3.7707916745739936 0 0 0
857 142 2 0.5564 -1.2592781076311046 -1.8865822257288132 4.166523398939521 0 0 0
789 119 2 0.5564 -2.4027497623327383 -11.478011630731446 6.2920721507594894 0 0 0
790 120 1 -1.1128 -4.291519074805442 -10.398935782998402 6.040339706203946 0 0 0
791 120 2 0.5564 -3.334203987595756 -10.438149910592582 6.06359128674677 0 0 0
792 120 2 0.5564 -4.494276937598802 -9.462914306409017 6.076069007049285 0 0 0
856 142 1 -1.1128 -2.0813378567263405 -2.3790120521455584 4.182684926486486 0 0 0
837 135 2 0.5564 -9.934842961833784 -3.3810464066279895 5.671403493934546 0 0 0
836 135 2 0.5564 -9.92690812403774 -4.576860580047 6.6025183780919 0 0 0
796 122 1 -1.1128 -10.317224539693404 -6.357272419996336 3.9078879938669058 0 0 0
797 122 2 0.5564 -9.794755076043492 -6.323735638188157 4.7106529057927595 0 0 0
798 122 2 0.5564 -10.188020384263103 -5.498991941815508 3.501459100340335 0 0 0
799 123 1 -1.1128 -10.15883757230878 -7.815110365062637 6.341749171937664 0 0 0
800 123 2 0.5564 -9.321470470615848 -8.141511523861055 6.008869042555586 0 0 0
801 123 2 0.5564 -10.81969195707537 -8.283378111076308 5.829381785506751 0 0 0
802 124 1 -1.1128 -11.907669032502291 -6.302843743831755 5.838745732643948 0 0 0
835 135 1 -1.1128 -10.438248914128476 -4.162093013325011 5.906078127973555 0 0 0
804 124 2 0.5564 -11.750721724940853 -6.050710438584976 6.749964629251426 0 0 0
805 125 1 -1.1128 -8.38074364535083 -8.284362313942164 4.184223018000937 0 0 0
806 125 2 0.5564 -7.489822424705809 -8.593284985213476 4.012884984339453 0 0 0
807 125 2 0.5564 -8.36943392994336 -7.36235270084436 3.9228919976596095 0 0 0
808 126 1 -1.1128 -6.389759113070536 -6.238730485118418 4.151019437650663 0 0 0
809 126 2 0.5564 -5.572328438807666 -6.644537643270688 3.8583452106225065 0 0 0
810 126 2 0.5564 -6.2179124481218 -5.296731871610896 4.110635351726831 0 0 0
811 127 1 -1.1128 -5.86380680938529 -8.254564149808683 6.349907854426181 0 0 0
812 127 2 0.5564 -6.64995703436477 -7.710604344471399 6.417776211870103 0 0 0
813 127 2 0.5564 -5.6662361562499415 -8.274831505719918 5.412315933703717 0 0 0
830 133 2 0.5564 -11.986995312065352 -3.595918118230343 3.409438896084347 0 0 0
829 133 1 -1.1128 -11.83742960337162 -4.3103251870778205 4.030553377290265 0 0 0
825 131 2 0.5564 -1.3450461773523532 -7.725907023740511 5.882350256242725 0 0 0
817 129 1 -1.1128 -4.245277385019418 -8.066069071647693 3.7073168189781267 0 0 0