LAMMPS data file via write_data, version 15 Sep 2022, timestep = 10

4948 atoms
5 atom types
2432 bonds
1 bond types
1216 angles
1 angle types

-16.16 16.16 xlo xhi
-16.16 16.16 ylo yhi
-52.52 52.52 zlo zhi

Masses

1 15.9994
2 1.008
3 28.99
4 35.453
5 26.9815

Pair Coeffs # lj/cut/tip4p/long

1 0.185199 3.1589
2 0 0
3 0.0469 2.4299
4 0.15 4.0447
5 11.697 2.574

Bond Coeffs # harmonic

1 0 0.9572

Angle Coeffs # harmonic

1 0 104.52

Atoms # full

1 0 5 0 -16.16 -16.16 -48.480000000000004 0 0 0
2 0 5 0 -14.14 -14.14 -48.480000000000004 0 0 0
3 0 5 0 -14.14 -16.16 -46.46 0 0 0
4 0 5 0 -16.16 -14.14 -46.46 0 0 0
5 0 5 0 -12.120000000000001 -16.16 -48.480000000000004 0 0 0
6 0 5 0 -10.1 -14.14 -48.480000000000004 0 0 0
7 0 5 0 -10.1 -16.16 -46.46 0 0 0
8 0 5 0 -12.120000000000001 -14.14 -46.46 0 0 0
33 0 5 0 -16.16 -12.120000000000001 -48.480000000000004 0 0 0
34 0 5 0 -14.14 -10.1 -48.480000000000004 0 0 0
35 0 5 0 -14.14 -12.120000000000001 -46.46 0 0 0
36 0 5 0 -16.16 -10.1 -46.46 0 0 0
37 0 5 0 -12.120000000000001 -12.120000000000001 -48.480000000000004 0 0 0
38 0 5 0 -10.1 -10.1 -48.480000000000004 0 0 0
39 0 5 0 -10.1 -12.120000000000001 -46.46 0 0 0
40 0 5 0 -12.120000000000001 -10.1 -46.46 0 0 0
257 0 5 0 -16.16 -16.16 -44.44 0 0 0
258 0 5 0 -14.14 -14.14 -44.44 0 0 0
261 0 5 0 -12.120000000000001 -16.16 -44.44 0 0 0
262 0 5 0 -10.1 -14.14 -44.44 0 0 0
289 0 5 0 -16.16 -12.120000000000001 -44.44 0 0 0
290 0 5 0 -14.14 -10.1 -44.44 0 0 0
293 0 5 0 -12.120000000000001 -12.120000000000001 -44.44 0 0 0
294 0 5 0 -10.1 -10.1 -44.44 0 0 0
9 0 5 0 -8.08 -16.16 -48.480000000000004 0 0 0
10 0 5 0 -6.0600000000000005 -14.14 -48.480000000000004 0 0 0
11 0 5 0 -6.0600000000000005 -16.16 -46.46 0 0 0
12 0 5 0 -8.08 -14.14 -46.46 0 0 0
13 0 5 0 -4.04 -16.16 -48.480000000000004 0 0 0
14 0 5 0 -2.02 -14.14 -48.480000000000004 0 0 0
15 0 5 0 -2.02 -16.16 -46.46 0 0 0
16 0 5 0 -4.04 -14.14 -46.46 0 0 0
41 0 5 0 -8.08 -12.120000000000001 -48.480000000000004 0 0 0
42 0 5 0 -6.0600000000000005 -10.1 -48.480000000000004 0 0 0
43 0 5 0 -6.0600000000000005 -12.120000000000001 -46.46 0 0 0
44 0 5 0 -8.08 -10.1 -46.46 0 0 0
45 0 5 0 -4.04 -12.120000000000001 -48.480000000000004 0 0 0
46 0 5 0 -2.02 -10.1 -48.480000000000004 0 0 0
47 0 5 0 -2.02 -12.120000000000001 -46.46 0 0 0
48 0 5 0 -4.04 -10.1 -46.46 0 0 0
265 0 5 0 -8.08 -16.16 -44.44 0 0 0
266 0 5 0 -6.0600000000000005 -14.14 -44.44 0 0 0
269 0 5 0 -4.04 -16.16 -44.44 0 0 0
270 0 5 0 -2.02 -14.14 -44.44 0 0 0
297 0 5 0 -8.08 -12.120000000000001 -44.44 0 0 0
298 0 5 0 -6.0600000000000005 -10.1 -44.44 0 0 0
301 0 5 0 -4.04 -12.120000000000001 -44.44 0 0 0
302 0 5 0 -2.02 -10.1 -44.44 0 0 0
17 0 5 0 0 -16.16 -48.480000000000004 0 0 0
18 0 5 0 2.02 -14.14 -48.480000000000004 0 0 0
19 0 5 0 2.02 -16.16 -46.46 0 0 0
20 0 5 0 0 -14.14 -46.46 0 0 0
21 0 5 0 4.04 -16.16 -48.480000000000004 0 0 0
22 0 5 0 6.0600000000000005 -14.14 -48.480000000000004 0 0 0
23 0 5 0 6.0600000000000005 -16.16 -46.46 0 0 0
24 0 5 0 4.04 -14.14 -46.46 0 0 0
49 0 5 0 0 -12.120000000000001 -48.480000000000004 0 0 0
50 0 5 0 2.02 -10.1 -48.480000000000004 0 0 0
51 0 5 0 2.02 -12.120000000000001 -46.46 0 0 0
52 0 5 0 0 -10.1 -46.46 0 0 0
53 0 5 0 4.04 -12.120000000000001 -48.480000000000004 0 0 0
54 0 5 0 6.0600000000000005 -10.1 -48.480000000000004 0 0 0
55 0 5 0 6.0600000000000005 -12.120000000000001 -46.46 0 0 0
56 0 5 0 4.04 -10.1 -46.46 0 0 0
273 0 5 0 0 -16.16 -44.44 0 0 0
274 0 5 0 2.02 -14.14 -44.44 0 0 0
277 0 5 0 4.04 -16.16 -44.44 0 0 0
278 0 5 0 6.0600000000000005 -14.14 -44.44 0 0 0
305 0 5 0 0 -12.120000000000001 -44.44 0 0 0
306 0 5 0 2.02 -10.1 -44.44 0 0 0
309 0 5 0 4.04 -12.120000000000001 -44.44 0 0 0
310 0 5 0 6.0600000000000005 -10.1 -44.44 0 0 0
25 0 5 0 8.08 -16.16 -48.480000000000004 0 0 0
26 0 5 0 10.1 -14.14 -48.480000000000004 0 0 0
27 0 5 0 10.1 -16.16 -46.46 0 0 0
28 0 5 0 8.08 -14.14 -46.46 0 0 0
29 0 5 0 12.120000000000001 -16.16 -48.480000000000004 0 0 0
30 0 5 0 14.14 -14.14 -48.480000000000004 0 0 0
31 0 5 0 14.14 -16.16 -46.46 0 0 0
32 0 5 0 12.120000000000001 -14.14 -46.46 0 0 0
57 0 5 0 8.08 -12.120000000000001 -48.480000000000004 0 0 0
58 0 5 0 10.1 -10.1 -48.480000000000004 0 0 0
59 0 5 0 10.1 -12.120000000000001 -46.46 0 0 0
60 0 5 0 8.08 -10.1 -46.46 0 0 0
61 0 5 0 12.120000000000001 -12.120000000000001 -48.480000000000004 0 0 0
62 0 5 0 14.14 -10.1 -48.480000000000004 0 0 0
63 0 5 0 14.14 -12.120000000000001 -46.46 0 0 0
64 0 5 0 12.120000000000001 -10.1 -46.46 0 0 0
281 0 5 0 8.08 -16.16 -44.44 0 0 0
282 0 5 0 10.1 -14.14 -44.44 0 0 0
285 0 5 0 12.120000000000001 -16.16 -44.44 0 0 0
286 0 5 0 14.14 -14.14 -44.44 0 0 0
313 0 5 0 8.08 -12.120000000000001 -44.44 0 0 0
314 0 5 0 10.1 -10.1 -44.44 0 0 0
317 0 5 0 12.120000000000001 -12.120000000000001 -44.44 0 0 0
318 0 5 0 14.14 -10.1 -44.44 0 0 0
65 0 5 0 -16.16 -8.08 -48.480000000000004 0 0 0
66 0 5 0 -14.14 -6.0600000000000005 -48.480000000000004 0 0 0
67 0 5 0 -14.14 -8.08 -46.46 0 0 0
68 0 5 0 -16.16 -6.0600000000000005 -46.46 0 0 0
69 0 5 0 -12.120000000000001 -8.08 -48.480000000000004 0 0 0
70 0 5 0 -10.1 -6.0600000000000005 -48.480000000000004 0 0 0
71 0 5 0 -10.1 -8.08 -46.46 0 0 0
72 0 5 0 -12.120000000000001 -6.0600000000000005 -46.46 0 0 0
97 0 5 0 -16.16 -4.04 -48.480000000000004 0 0 0
98 0 5 0 -14.14 -2.02 -48.480000000000004 0 0 0
99 0 5 0 -14.14 -4.04 -46.46 0 0 0
100 0 5 0 -16.16 -2.02 -46.46 0 0 0
101 0 5 0 -12.120000000000001 -4.04 -48.480000000000004 0 0 0
102 0 5 0 -10.1 -2.02 -48.480000000000004 0 0 0
103 0 5 0 -10.1 -4.04 -46.46 0 0 0
104 0 5 0 -12.120000000000001 -2.02 -46.46 0 0 0
321 0 5 0 -16.16 -8.08 -44.44 0 0 0
322 0 5 0 -14.14 -6.0600000000000005 -44.44 0 0 0
325 0 5 0 -12.120000000000001 -8.08 -44.44 0 0 0
326 0 5 0 -10.1 -6.0600000000000005 -44.44 0 0 0
353 0 5 0 -16.16 -4.04 -44.44 0 0 0
354 0 5 0 -14.14 -2.02 -44.44 0 0 0
357 0 5 0 -12.120000000000001 -4.04 -44.44 0 0 0
358 0 5 0 -10.1 -2.02 -44.44 0 0 0
73 0 5 0 -8.08 -8.08 -48.480000000000004 0 0 0
74 0 5 0 -6.0600000000000005 -6.0600000000000005 -48.480000000000004 0 0 0
75 0 5 0 -6.0600000000000005 -8.08 -46.46 0 0 0
76 0 5 0 -8.08 -6.0600000000000005 -46.46 0 0 0
77 0 5 0 -4.04 -8.08 -48.480000000000004 0 0 0
78 0 5 0 -2.02 -6.0600000000000005 -48.480000000000004 0 0 0
79 0 5 0 -2.02 -8.08 -46.46 0 0 0
80 0 5 0 -4.04 -6.0600000000000005 -46.46 0 0 0
105 0 5 0 -8.08 -4.04 -48.480000000000004 0 0 0
106 0 5 0 -6.0600000000000005 -2.02 -48.480000000000004 0 0 0
107 0 5 0 -6.0600000000000005 -4.04 -46.46 0 0 0
108 0 5 0 -8.08 -2.02 -46.46 0 0 0
109 0 5 0 -4.04 -4.04 -48.480000000000004 0 0 0
110 0 5 0 -2.02 -2.02 -48.480000000000004 0 0 0
111 0 5 0 -2.02 -4.04 -46.46 0 0 0
112 0 5 0 -4.04 -2.02 -46.46 0 0 0
329 0 5 0 -8.08 -8.08 -44.44 0 0 0
330 0 5 0 -6.0600000000000005 -6.0600000000000005 -44.44 0 0 0
333 0 5 0 -4.04 -8.08 -44.44 0 0 0
334 0 5 0 -2.02 -6.0600000000000005 -44.44 0 0 0
361 0 5 0 -8.08 -4.04 -44.44 0 0 0
362 0 5 0 -6.0600000000000005 -2.02 -44.44 0 0 0
365 0 5 0 -4.04 -4.04 -44.44 0 0 0
366 0 5 0 -2.02 -2.02 -44.44 0 0 0
81 0 5 0 0 -8.08 -48.480000000000004 0 0 0
82 0 5 0 2.02 -6.0600000000000005 -48.480000000000004 0 0 0
83 0 5 0 2.02 -8.08 -46.46 0 0 0
84 0 5 0 0 -6.0600000000000005 -46.46 0 0 0
85 0 5 0 4.04 -8.08 -48.480000000000004 0 0 0
86 0 5 0 6.0600000000000005 -6.0600000000000005 -48.480000000000004 0 0 0
87 0 5 0 6.0600000000000005 -8.08 -46.46 0 0 0
88 0 5 0 4.04 -6.0600000000000005 -46.46 0 0 0
113 0 5 0 0 -4.04 -48.480000000000004 0 0 0
114 0 5 0 2.02 -2.02 -48.480000000000004 0 0 0
115 0 5 0 2.02 -4.04 -46.46 0 0 0
116 0 5 0 0 -2.02 -46.46 0 0 0
117 0 5 0 4.04 -4.04 -48.480000000000004 0 0 0
118 0 5 0 6.0600000000000005 -2.02 -48.480000000000004 0 0 0
119 0 5 0 6.0600000000000005 -4.04 -46.46 0 0 0
120 0 5 0 4.04 -2.02 -46.46 0 0 0
337 0 5 0 0 -8.08 -44.44 0 0 0
338 0 5 0 2.02 -6.0600000000000005 -44.44 0 0 0
341 0 5 0 4.04 -8.08 -44.44 0 0 0
342 0 5 0 6.0600000000000005 -6.0600000000000005 -44.44 0 0 0
369 0 5 0 0 -4.04 -44.44 0 0 0
370 0 5 0 2.02 -2.02 -44.44 0 0 0
373 0 5 0 4.04 -4.04 -44.44 0 0 0
374 0 5 0 6.0600000000000005 -2.02 -44.44 0 0 0
89 0 5 0 8.08 -8.08 -48.480000000000004 0 0 0
90 0 5 0 10.1 -6.0600000000000005 -48.480000000000004 0 0 0
91 0 5 0 10.1 -8.08 -46.46 0 0 0
92 0 5 0 8.08 -6.0600000000000005 -46.46 0 0 0
93 0 5 0 12.120000000000001 -8.08 -48.480000000000004 0 0 0
94 0 5 0 14.14 -6.0600000000000005 -48.480000000000004 0 0 0
95 0 5 0 14.14 -8.08 -46.46 0 0 0
96 0 5 0 12.120000000000001 -6.0600000000000005 -46.46 0 0 0
121 0 5 0 8.08 -4.04 -48.480000000000004 0 0 0
122 0 5 0 10.1 -2.02 -48.480000000000004 0 0 0
123 0 5 0 10.1 -4.04 -46.46 0 0 0
124 0 5 0 8.08 -2.02 -46.46 0 0 0
125 0 5 0 12.120000000000001 -4.04 -48.480000000000004 0 0 0
126 0 5 0 14.14 -2.02 -48.480000000000004 0 0 0
127 0 5 0 14.14 -4.04 -46.46 0 0 0
128 0 5 0 12.120000000000001 -2.02 -46.46 0 0 0
345 0 5 0 8.08 -8.08 -44.44 0 0 0
346 0 5 0 10.1 -6.0600000000000005 -44.44 0 0 0
349 0 5 0 12.120000000000001 -8.08 -44.44 0 0 0
350 0 5 0 14.14 -6.0600000000000005 -44.44 0 0 0
377 0 5 0 8.08 -4.04 -44.44 0 0 0
378 0 5 0 10.1 -2.02 -44.44 0 0 0
381 0 5 0 12.120000000000001 -4.04 -44.44 0 0 0
382 0 5 0 14.14 -2.02 -44.44 0 0 0
129 0 5 0 -16.16 0 -48.480000000000004 0 0 0
130 0 5 0 -14.14 2.02 -48.480000000000004 0 0 0
131 0 5 0 -14.14 0 -46.46 0 0 0
132 0 5 0 -16.16 2.02 -46.46 0 0 0
133 0 5 0 -12.120000000000001 0 -48.480000000000004 0 0 0
134 0 5 0 -10.1 2.02 -48.480000000000004 0 0 0
135 0 5 0 -10.1 0 -46.46 0 0 0
136 0 5 0 -12.120000000000001 2.02 -46.46 0 0 0
161 0 5 0 -16.16 4.04 -48.480000000000004 0 0 0
162 0 5 0 -14.14 6.0600000000000005 -48.480000000000004 0 0 0
163 0 5 0 -14.14 4.04 -46.46 0 0 0
164 0 5 0 -16.16 6.0600000000000005 -46.46 0 0 0
165 0 5 0 -12.120000000000001 4.04 -48.480000000000004 0 0 0
166 0 5 0 -10.1 6.0600000000000005 -48.480000000000004 0 0 0
167 0 5 0 -10.1 4.04 -46.46 0 0 0
168 0 5 0 -12.120000000000001 6.0600000000000005 -46.46 0 0 0
385 0 5 0 -16.16 0 -44.44 0 0 0
386 0 5 0 -14.14 2.02 -44.44 0 0 0
389 0 5 0 -12.120000000000001 0 -44.44 0 0 0
390 0 5 0 -10.1 2.02 -44.44 0 0 0
417 0 5 0 -16.16 4.04 -44.44 0 0 0
418 0 5 0 -14.14 6.0600000000000005 -44.44 0 0 0
421 0 5 0 -12.120000000000001 4.04 -44.44 0 0 0
422 0 5 0 -10.1 6.0600000000000005 -44.44 0 0 0
137 0 5 0 -8.08 0 -48.480000000000004 0 0 0
138 0 5 0 -6.0600000000000005 2.02 -48.480000000000004 0 0 0
139 0 5 0 -6.0600000000000005 0 -46.46 0 0 0
140 0 5 0 -8.08 2.02 -46.46 0 0 0
141 0 5 0 -4.04 0 -48.480000000000004 0 0 0
142 0 5 0 -2.02 2.02 -48.480000000000004 0 0 0
143 0 5 0 -2.02 0 -46.46 0 0 0
144 0 5 0 -4.04 2.02 -46.46 0 0 0
169 0 5 0 -8.08 4.04 -48.480000000000004 0 0 0
170 0 5 0 -6.0600000000000005 6.0600000000000005 -48.480000000000004 0 0 0
171 0 5 0 -6.0600000000000005 4.04 -46.46 0 0 0
172 0 5 0 -8.08 6.0600000000000005 -46.46 0 0 0
173 0 5 0 -4.04 4.04 -48.480000000000004 0 0 0
174 0 5 0 -2.02 6.0600000000000005 -48.480000000000004 0 0 0
175 0 5 0 -2.02 4.04 -46.46 0 0 0
176 0 5 0 -4.04 6.0600000000000005 -46.46 0 0 0
393 0 5 0 -8.08 0 -44.44 0 0 0
394 0 5 0 -6.0600000000000005 2.02 -44.44 0 0 0
397 0 5 0 -4.04 0 -44.44 0 0 0
398 0 5 0 -2.02 2.02 -44.44 0 0 0
425 0 5 0 -8.08 4.04 -44.44 0 0 0
426 0 5 0 -6.0600000000000005 6.0600000000000005 -44.44 0 0 0
429 0 5 0 -4.04 4.04 -44.44 0 0 0
430 0 5 0 -2.02 6.0600000000000005 -44.44 0 0 0
145 0 5 0 0 0 -48.480000000000004 0 0 0
146 0 5 0 2.02 2.02 -48.480000000000004 0 0 0
147 0 5 0 2.02 0 -46.46 0 0 0
148 0 5 0 0 2.02 -46.46 0 0 0
149 0 5 0 4.04 0 -48.480000000000004 0 0 0
150 0 5 0 6.0600000000000005 2.02 -48.480000000000004 0 0 0
151 0 5 0 6.0600000000000005 0 -46.46 0 0 0
152 0 5 0 4.04 2.02 -46.46 0 0 0
177 0 5 0 0 4.04 -48.480000000000004 0 0 0
178 0 5 0 2.02 6.0600000000000005 -48.480000000000004 0 0 0
179 0 5 0 2.02 4.04 -46.46 0 0 0
180 0 5 0 0 6.0600000000000005 -46.46 0 0 0
181 0 5 0 4.04 4.04 -48.480000000000004 0 0 0
182 0 5 0 6.0600000000000005 6.0600000000000005 -48.480000000000004 0 0 0
183 0 5 0 6.0600000000000005 4.04 -46.46 0 0 0
184 0 5 0 4.04 6.0600000000000005 -46.46 0 0 0
401 0 5 0 0 0 -44.44 0 0 0
402 0 5 0 2.02 2.02 -44.44 0 0 0
405 0 5 0 4.04 0 -44.44 0 0 0
406 0 5 0 6.0600000000000005 2.02 -44.44 0 0 0
433 0 5 0 0 4.04 -44.44 0 0 0
434 0 5 0 2.02 6.0600000000000005 -44.44 0 0 0
437 0 5 0 4.04 4.04 -44.44 0 0 0
438 0 5 0 6.0600000000000005 6.0600000000000005 -44.44 0 0 0
153 0 5 0 8.08 0 -48.480000000000004 0 0 0
154 0 5 0 10.1 2.02 -48.480000000000004 0 0 0
155 0 5 0 10.1 0 -46.46 0 0 0
156 0 5 0 8.08 2.02 -46.46 0 0 0
157 0 5 0 12.120000000000001 0 -48.480000000000004 0 0 0
158 0 5 0 14.14 2.02 -48.480000000000004 0 0 0
159 0 5 0 14.14 0 -46.46 0 0 0
160 0 5 0 12.120000000000001 2.02 -46.46 0 0 0
185 0 5 0 8.08 4.04 -48.480000000000004 0 0 0
186 0 5 0 10.1 6.0600000000000005 -48.480000000000004 0 0 0
187 0 5 0 10.1 4.04 -46.46 0 0 0
188 0 5 0 8.08 6.0600000000000005 -46.46 0 0 0
189 0 5 0 12.120000000000001 4.04 -48.480000000000004 0 0 0
190 0 5 0 14.14 6.0600000000000005 -48.480000000000004 0 0 0
191 0 5 0 14.14 4.04 -46.46 0 0 0
192 0 5 0 12.120000000000001 6.0600000000000005 -46.46 0 0 0
409 0 5 0 8.08 0 -44.44 0 0 0
410 0 5 0 10.1 2.02 -44.44 0 0 0
413 0 5 0 12.120000000000001 0 -44.44 0 0 0
414 0 5 0 14.14 2.02 -44.44 0 0 0
441 0 5 0 8.08 4.04 -44.44 0 0 0
442 0 5 0 10.1 6.0600000000000005 -44.44 0 0 0
445 0 5 0 12.120000000000001 4.04 -44.44 0 0 0
446 0 5 0 14.14 6.0600000000000005 -44.44 0 0 0
193 0 5 0 -16.16 8.08 -48.480000000000004 0 0 0
194 0 5 0 -14.14 10.1 -48.480000000000004 0 0 0
195 0 5 0 -14.14 8.08 -46.46 0 0 0
196 0 5 0 -16.16 10.1 -46.46 0 0 0
197 0 5 0 -12.120000000000001 8.08 -48.480000000000004 0 0 0
198 0 5 0 -10.1 10.1 -48.480000000000004 0 0 0
199 0 5 0 -10.1 8.08 -46.46 0 0 0
200 0 5 0 -12.120000000000001 10.1 -46.46 0 0 0
225 0 5 0 -16.16 12.120000000000001 -48.480000000000004 0 0 0
226 0 5 0 -14.14 14.14 -48.480000000000004 0 0 0
227 0 5 0 -14.14 12.120000000000001 -46.46 0 0 0
228 0 5 0 -16.16 14.14 -46.46 0 0 0
229 0 5 0 -12.120000000000001 12.120000000000001 -48.480000000000004 0 0 0
230 0 5 0 -10.1 14.14 -48.480000000000004 0 0 0
231 0 5 0 -10.1 12.120000000000001 -46.46 0 0 0
232 0 5 0 -12.120000000000001 14.14 -46.46 0 0 0
449 0 5 0 -16.16 8.08 -44.44 0 0 0
450 0 5 0 -14.14 10.1 -44.44 0 0 0
453 0 5 0 -12.120000000000001 8.08 -44.44 0 0 0
454 0 5 0 -10.1 10.1 -44.44 0 0 0
481 0 5 0 -16.16 12.120000000000001 -44.44 0 0 0
482 0 5 0 -14.14 14.14 -44.44 0 0 0
485 0 5 0 -12.120000000000001 12.120000000000001 -44.44 0 0 0
486 0 5 0 -10.1 14.14 -44.44 0 0 0
201 0 5 0 -8.08 8.08 -48.480000000000004 0 0 0
202 0 5 0 -6.0600000000000005 10.1 -48.480000000000004 0 0 0
203 0 5 0 -6.0600000000000005 8.08 -46.46 0 0 0
204 0 5 0 -8.08 10.1 -46.46 0 0 0
205 0 5 0 -4.04 8.08 -48.480000000000004 0 0 0
206 0 5 0 -2.02 10.1 -48.480000000000004 0 0 0
207 0 5 0 -2.02 8.08 -46.46 0 0 0
208 0 5 0 -4.04 10.1 -46.46 0 0 0
233 0 5 0 -8.08 12.120000000000001 -48.480000000000004 0 0 0
234 0 5 0 -6.0600000000000005 14.14 -48.480000000000004 0 0 0
235 0 5 0 -6.0600000000000005 12.120000000000001 -46.46 0 0 0
236 0 5 0 -8.08 14.14 -46.46 0 0 0
237 0 5 0 -4.04 12.120000000000001 -48.480000000000004 0 0 0
238 0 5 0 -2.02 14.14 -48.480000000000004 0 0 0
239 0 5 0 -2.02 12.120000000000001 -46.46 0 0 0
240 0 5 0 -4.04 14.14 -46.46 0 0 0
457 0 5 0 -8.08 8.08 -44.44 0 0 0
458 0 5 0 -6.0600000000000005 10.1 -44.44 0 0 0
461 0 5 0 -4.04 8.08 -44.44 0 0 0
462 0 5 0 -2.02 10.1 -44.44 0 0 0
489 0 5 0 -8.08 12.120000000000001 -44.44 0 0 0
490 0 5 0 -6.0600000000000005 14.14 -44.44 0 0 0
493 0 5 0 -4.04 12.120000000000001 -44.44 0 0 0
494 0 5 0 -2.02 14.14 -44.44 0 0 0
209 0 5 0 0 8.08 -48.480000000000004 0 0 0
210 0 5 0 2.02 10.1 -48.480000000000004 0 0 0
211 0 5 0 2.02 8.08 -46.46 0 0 0
212 0 5 0 0 10.1 -46.46 0 0 0
213 0 5 0 4.04 8.08 -48.480000000000004 0 0 0
214 0 5 0 6.0600000000000005 10.1 -48.480000000000004 0 0 0
215 0 5 0 6.0600000000000005 8.08 -46.46 0 0 0
216 0 5 0 4.04 10.1 -46.46 0 0 0
241 0 5 0 0 12.120000000000001 -48.480000000000004 0 0 0
242 0 5 0 2.02 14.14 -48.480000000000004 0 0 0
243 0 5 0 2.02 12.120000000000001 -46.46 0 0 0
244 0 5 0 0 14.14 -46.46 0 0 0
245 0 5 0 4.04 12.120000000000001 -48.480000000000004 0 0 0
246 0 5 0 6.0600000000000005 14.14 -48.480000000000004 0 0 0
247 0 5 0 6.0600000000000005 12.120000000000001 -46.46 0 0 0
248 0 5 0 4.04 14.14 -46.46 0 0 0
465 0 5 0 0 8.08 -44.44 0 0 0
466 0 5 0 2.02 10.1 -44.44 0 0 0
469 0 5 0 4.04 8.08 -44.44 0 0 0
470 0 5 0 6.0600000000000005 10.1 -44.44 0 0 0
497 0 5 0 0 12.120000000000001 -44.44 0 0 0
498 0 5 0 2.02 14.14 -44.44 0 0 0
501 0 5 0 4.04 12.120000000000001 -44.44 0 0 0
502 0 5 0 6.0600000000000005 14.14 -44.44 0 0 0
217 0 5 0 8.08 8.08 -48.480000000000004 0 0 0
218 0 5 0 10.1 10.1 -48.480000000000004 0 0 0
219 0 5 0 10.1 8.08 -46.46 0 0 0
220 0 5 0 8.08 10.1 -46.46 0 0 0
221 0 5 0 12.120000000000001 8.08 -48.480000000000004 0 0 0
222 0 5 0 14.14 10.1 -48.480000000000004 0 0 0
223 0 5 0 14.14 8.08 -46.46 0 0 0
224 0 5 0 12.120000000000001 10.1 -46.46 0 0 0
249 0 5 0 8.08 12.120000000000001 -48.480000000000004 0 0 0
250 0 5 0 10.1 14.14 -48.480000000000004 0 0 0
251 0 5 0 10.1 12.120000000000001 -46.46 0 0 0
252 0 5 0 8.08 14.14 -46.46 0 0 0
253 0 5 0 12.120000000000001 12.120000000000001 -48.480000000000004 0 0 0
254 0 5 0 14.14 14.14 -48.480000000000004 0 0 0
255 0 5 0 14.14 12.120000000000001 -46.46 0 0 0
256 0 5 0 12.120000000000001 14.14 -46.46 0 0 0
473 0 5 0 8.08 8.08 -44.44 0 0 0
474 0 5 0 10.1 10.1 -44.44 0 0 0
477 0 5 0 12.120000000000001 8.08 -44.44 0 0 0
478 0 5 0 14.14 10.1 -44.44 0 0 0
505 0 5 0 8.08 12.120000000000001 -44.44 0 0 0
506 0 5 0 10.1 14.14 -44.44 0 0 0
509 0 5 0 12.120000000000001 12.120000000000001 -44.44 0 0 0
510 0 5 0 14.14 14.14 -44.44 0 0 0
259 0 5 0 -14.14 -16.16 -42.42 0 0 0
260 0 5 0 -16.16 -14.14 -42.42 0 0 0
263 0 5 0 -10.1 -16.16 -42.42 0 0 0
264 0 5 0 -12.120000000000001 -14.14 -42.42 0 0 0
291 0 5 0 -14.14 -12.120000000000001 -42.42 0 0 0
292 0 5 0 -16.16 -10.1 -42.42 0 0 0
295 0 5 0 -10.1 -12.120000000000001 -42.42 0 0 0
296 0 5 0 -12.120000000000001 -10.1 -42.42 0 0 0
513 0 5 0 -16.16 -16.16 -40.4 0 0 0
514 0 5 0 -14.14 -14.14 -40.4 0 0 0
515 0 5 0 -12.120000000000001 -16.16 -40.4 0 0 0
516 0 5 0 -10.1 -14.14 -40.4 0 0 0
529 0 5 0 -16.16 -12.120000000000001 -40.4 0 0 0
530 0 5 0 -14.14 -10.1 -40.4 0 0 0
531 0 5 0 -12.120000000000001 -12.120000000000001 -40.4 0 0 0
532 0 5 0 -10.1 -10.1 -40.4 0 0 0
1281 1 1 -1.1128 -16.08788006088072 -15.77749237561409 -36.3213010831149 0 0 0
1285 2 2 0.5564 -11.365572701797445 -16.062601845197364 -36.1759909739501 0 0 0
1286 2 2 0.5564 -12.813429460545688 -15.872874975593897 -36.58185295492084 0 0 0
1306 9 2 0.5564 -15.830173674558196 -12.651010890496977 -36.830901581776025 0 0 0
1308 10 1 -1.1128 -12.135082636920261 -12.47924588552746 -36.20596791796797 0 0 0
1309 10 2 0.5564 -11.361286329626187 -12.004714266972856 -36.51352210475462 0 0 0
1310 10 2 0.5564 -12.863631033453554 -11.876039847499687 -36.36050997727741 0 0 0
1311 11 1 -1.1128 -8.304947243586758 -12.212207786620326 -36.666443202224 0 0 0
1313 11 2 0.5564 -8.512532238461855 -11.617640109652786 -35.944002003296276 0 0 0
1332 18 1 -1.1128 -12.359152459601466 -8.389543134349738 -36.35964851243351 0 0 0
1333 18 2 0.5564 -11.400753055648389 -8.388528934372438 -36.35998600434952 0 0 0
1335 19 1 -1.1128 -8.333102794693438 -8.21579397999165 -36.62553708745936 0 0 0
1336 19 2 0.5564 -8.39274024115665 -8.280610734211786 -35.67119295489935 0 0 0
267 0 5 0 -6.0600000000000005 -16.16 -42.42 0 0 0
268 0 5 0 -8.08 -14.14 -42.42 0 0 0
271 0 5 0 -2.02 -16.16 -42.42 0 0 0
272 0 5 0 -4.04 -14.14 -42.42 0 0 0
299 0 5 0 -6.0600000000000005 -12.120000000000001 -42.42 0 0 0
300 0 5 0 -8.08 -10.1 -42.42 0 0 0
303 0 5 0 -2.02 -12.120000000000001 -42.42 0 0 0
304 0 5 0 -4.04 -10.1 -42.42 0 0 0
517 0 5 0 -8.08 -16.16 -40.4 0 0 0
518 0 5 0 -6.0600000000000005 -14.14 -40.4 0 0 0
519 0 5 0 -4.04 -16.16 -40.4 0 0 0
520 0 5 0 -2.02 -14.14 -40.4 0 0 0
533 0 5 0 -8.08 -12.120000000000001 -40.4 0 0 0
534 0 5 0 -6.0600000000000005 -10.1 -40.4 0 0 0
535 0 5 0 -4.04 -12.120000000000001 -40.4 0 0 0
536 0 5 0 -2.02 -10.1 -40.4 0 0 0
1288 3 2 0.5564 -8.065291011251858 -15.665129208085862 -36.966129371883824 0 0 0
1292 4 2 0.5564 -4.054247863231392 -15.430822349253274 -36.07609705523749 0 0 0
1294 5 2 0.5564 -0.5269222803410747 -15.929376815358186 -35.82927207753329 0 0 0
1312 11 2 0.5564 -7.422520517951387 -12.530152103726891 -36.46955479447972 0 0 0
1314 12 1 -1.1128 -4.066458022523224 -12.106584576380433 -35.96996029182496 0 0 0
1315 12 2 0.5564 -4.435221751055839 -11.490342723196882 -36.60461756225021 0 0 0
1316 12 2 0.5564 -3.618320226420937 -12.76307270042269 -36.505422145924825 0 0 0
1317 13 1 -1.1128 -0.0791047884186512 -12.502816334163075 -36.37431995974807 0 0 0
1319 13 2 0.5564 -0.3395753992098645 -11.87471340274066 -35.69891985095875 0 0 0
1339 20 2 0.5564 -4.66139367684926 -8.520356845372136 -36.54017218876857 0 0 0
1343 21 2 0.5564 -0.09718616543467287 -8.615290812627865 -35.79739665379212 0 0 0
275 0 5 0 2.02 -16.16 -42.42 0 0 0
276 0 5 0 0 -14.14 -42.42 0 0 0
279 0 5 0 6.0600000000000005 -16.16 -42.42 0 0 0
280 0 5 0 4.04 -14.14 -42.42 0 0 0
307 0 5 0 2.02 -12.120000000000001 -42.42 0 0 0
308 0 5 0 0 -10.1 -42.42 0 0 0
311 0 5 0 6.0600000000000005 -12.120000000000001 -42.42 0 0 0
312 0 5 0 4.04 -10.1 -42.42 0 0 0
521 0 5 0 0 -16.16 -40.4 0 0 0
522 0 5 0 2.02 -14.14 -40.4 0 0 0
523 0 5 0 4.04 -16.16 -40.4 0 0 0
524 0 5 0 6.0600000000000005 -14.14 -40.4 0 0 0
537 0 5 0 0 -12.120000000000001 -40.4 0 0 0
538 0 5 0 2.02 -10.1 -40.4 0 0 0
539 0 5 0 4.04 -12.120000000000001 -40.4 0 0 0
540 0 5 0 6.0600000000000005 -10.1 -40.4 0 0 0
1296 6 1 -1.1128 4.209402172469682 -16.070130465929147 -36.700935984179495 0 0 0
1298 6 2 0.5564 3.3703989007375705 -15.754863000152776 -36.36151961223235 0 0 0
1318 13 2 0.5564 0.4186801876285158 -11.98247026309627 -37.006760189293175 0 0 0
1320 14 1 -1.1128 4.243537725132797 -11.792260799590283 -36.295421478318524 0 0 0
1321 14 2 0.5564 4.006095194430225 -12.470136718390512 -35.66088555079014 0 0 0
1322 14 2 0.5564 3.8703670804369783 -12.097602482019209 -37.12369297089133 0 0 0
1323 15 1 -1.1128 7.893099341048532 -12.320026503010531 -36.08059256223771 0 0 0
1325 15 2 0.5564 7.685172725126924 -11.44657588424975 -36.41581499209258 0 0 0
1345 22 2 0.5564 4.181539428638329 -8.556409234059354 -36.964571833898766 0 0 0
283 0 5 0 10.1 -16.16 -42.42 0 0 0
284 0 5 0 8.08 -14.14 -42.42 0 0 0
287 0 5 0 14.14 -16.16 -42.42 0 0 0
288 0 5 0 12.120000000000001 -14.14 -42.42 0 0 0
315 0 5 0 10.1 -12.120000000000001 -42.42 0 0 0
316 0 5 0 8.08 -10.1 -42.42 0 0 0
319 0 5 0 14.14 -12.120000000000001 -42.42 0 0 0
320 0 5 0 12.120000000000001 -10.1 -42.42 0 0 0
525 0 5 0 8.08 -16.16 -40.4 0 0 0
526 0 5 0 10.1 -14.14 -40.4 0 0 0
527 0 5 0 12.120000000000001 -16.16 -40.4 0 0 0
528 0 5 0 14.14 -14.14 -40.4 0 0 0
541 0 5 0 8.08 -12.120000000000001 -40.4 0 0 0
542 0 5 0 10.1 -10.1 -40.4 0 0 0
543 0 5 0 12.120000000000001 -12.120000000000001 -40.4 0 0 0
544 0 5 0 14.14 -10.1 -40.4 0 0 0
1300 7 2 0.5564 8.316683866152411 -15.417579693637501 -36.432794963450505 0 0 0
1303 8 2 0.5564 12.524783641137365 -15.704875236319907 -35.868555268771026 0 0 0
1305 9 1 -1.1128 15.957299793544024 -12.331613817392881 -36.10087996393347 -1 0 0
1307 9 2 0.5564 16.032873881014172 -11.377375292110145 -36.14821845429049 -1 0 0
1324 15 2 0.5564 8.661727933824544 -12.593397612739722 -36.58359244566971 0 0 0
1326 16 1 -1.1128 11.796130528586753 -12.01826054276024 -36.5543415108181 0 0 0
1327 16 2 0.5564 11.862948086170597 -12.569948629580486 -35.77350463357731 0 0 0
1328 16 2 0.5564 12.700921385242655 -11.771790827659277 -36.75215385560459 0 0 0
1330 17 2 0.5564 16.034645130632455 -8.288529172030119 -35.61615323376499 -1 0 0
1331 17 2 0.5564 16.088912349294137 -8.208820869255758 -37.128671359920034 -1 0 0
1348 23 2 0.5564 8.56816840409865 -8.662146243018702 -36.547892606238214 0 0 0
1350 24 1 -1.1128 12.502924045383478 -8.084605877092901 -36.439742936134536 0 0 0
1351 24 2 0.5564 12.082540402552452 -8.1088085036341 -35.57880020533961 0 0 0
323 0 5 0 -14.14 -8.08 -42.42 0 0 0
324 0 5 0 -16.16 -6.0600000000000005 -42.42 0 0 0
327 0 5 0 -10.1 -8.08 -42.42 0 0 0
328 0 5 0 -12.120000000000001 -6.0600000000000005 -42.42 0 0 0
355 0 5 0 -14.14 -4.04 -42.42 0 0 0
356 0 5 0 -16.16 -2.02 -42.42 0 0 0
359 0 5 0 -10.1 -4.04 -42.42 0 0 0
360 0 5 0 -12.120000000000001 -2.02 -42.42 0 0 0
545 0 5 0 -16.16 -8.08 -40.4 0 0 0
546 0 5 0 -14.14 -6.0600000000000005 -40.4 0 0 0
547 0 5 0 -12.120000000000001 -8.08 -40.4 0 0 0
548 0 5 0 -10.1 -6.0600000000000005 -40.4 0 0 0
561 0 5 0 -16.16 -4.04 -40.4 0 0 0
562 0 5 0 -14.14 -2.02 -40.4 0 0 0
563 0 5 0 -12.120000000000001 -4.04 -40.4 0 0 0
564 0 5 0 -10.1 -2.02 -40.4 0 0 0
1329 17 1 -1.1128 -15.96355747992659 -7.742649958714125 -36.335175406314974 0 0 0
1334 18 2 0.5564 -12.600094484750148 -7.461927931277825 -36.36036548321697 0 0 0
1353 25 1 -1.1128 -15.937029968140132 -4.043995127338232 -36.6813710913414 0 0 0
1355 25 2 0.5564 -15.65736291241707 -4.157559340249831 -35.771748616910955 0 0 0
1356 26 1 -1.1128 -12.173345543094339 -4.0132447844651855 -36.746586841438834 0 0 0
1357 26 2 0.5564 -12.211553912573748 -4.801053759422288 -36.20213509933605 0 0 0
1358 26 2 0.5564 -11.975100544331916 -3.3057014561125264 -36.13127805922512 0 0 0
1359 27 1 -1.1128 -8.297600480798785 -4.360713051517196 -36.412954167377706 0 0 0
1361 27 2 0.5564 -8.531987827294834 -3.453095842257678 -36.61249642294906 0 0 0
1379 33 2 0.5564 -15.49816106825004 -0.40788036372609376 -36.450037588299224 0 0 0
1380 34 1 -1.1128 -12.157365687712481 -0.3684365032078538 -36.23402649887479 0 0 0
1382 34 2 0.5564 -11.6767611732821 -0.05698294611734356 -37.00249219165802 0 0 0
331 0 5 0 -6.0600000000000005 -8.08 -42.42 0 0 0
332 0 5 0 -8.08 -6.0600000000000005 -42.42 0 0 0
335 0 5 0 -2.02 -8.08 -42.42 0 0 0
336 0 5 0 -4.04 -6.0600000000000005 -42.42 0 0 0
363 0 5 0 -6.0600000000000005 -4.04 -42.42 0 0 0
364 0 5 0 -8.08 -2.02 -42.42 0 0 0
367 0 5 0 -2.02 -4.04 -42.42 0 0 0
368 0 5 0 -4.04 -2.02 -42.42 0 0 0
549 0 5 0 -8.08 -8.08 -40.4 0 0 0
550 0 5 0 -6.0600000000000005 -6.0600000000000005 -40.4 0 0 0
551 0 5 0 -4.04 -8.08 -40.4 0 0 0
552 0 5 0 -2.02 -6.0600000000000005 -40.4 0 0 0
565 0 5 0 -8.08 -4.04 -40.4 0 0 0
566 0 5 0 -6.0600000000000005 -2.02 -40.4 0 0 0
567 0 5 0 -4.04 -4.04 -40.4 0 0 0
568 0 5 0 -2.02 -2.02 -40.4 0 0 0
1337 19 2 0.5564 -7.514156964149913 -7.743595285796563 -36.78326995764129 0 0 0
1338 20 1 -1.1128 -4.1918681789339045 -7.735849290351639 -36.2527278238506 0 0 0
1340 20 2 0.5564 -3.2667381442168355 -7.983793864276224 -36.287099987380834 0 0 0
1342 21 2 0.5564 -0.06031539956154147 -7.852071074336427 -37.106268536065656 0 0 0
1360 27 2 0.5564 -7.410411691906382 -4.306191106225126 -36.054549409673236 0 0 0
1362 28 1 -1.1128 -3.9134293326770075 -4.342580099752384 -36.57315750961965 0 0 0
1363 28 2 0.5564 -4.007657656414234 -3.42945038513948 -36.84855850325734 0 0 0
1364 28 2 0.5564 -4.1989130109087585 -4.347969515108136 -35.65828398712301 0 0 0
1365 29 1 -1.1128 -0.24952933981484132 -4.340262507472407 -36.335740781588186 0 0 0
1367 29 2 0.5564 -0.4576153780202252 -3.405109301139387 -36.36242822974381 0 0 0
1384 35 2 0.5564 -7.860140998121382 -0.537141445240634 -35.834978707481554 0 0 0
1387 36 2 0.5564 -4.3154373435978375 -0.11489004948321348 -37.08349209863101 0 0 0
1388 36 2 0.5564 -3.4559649372414367 -0.01427227708895043 -35.83922819049482 0 0 0
1389 37 1 -1.1128 -0.3809791439954713 -0.07252395156279548 -36.41105039461351 0 0 0
339 0 5 0 2.02 -8.08 -42.42 0 0 0
340 0 5 0 0 -6.0600000000000005 -42.42 0 0 0
343 0 5 0 6.0600000000000005 -8.08 -42.42 0 0 0
344 0 5 0 4.04 -6.0600000000000005 -42.42 0 0 0
371 0 5 0 2.02 -4.04 -42.42 0 0 0
372 0 5 0 0 -2.02 -42.42 0 0 0
375 0 5 0 6.0600000000000005 -4.04 -42.42 0 0 0
376 0 5 0 4.04 -2.02 -42.42 0 0 0
553 0 5 0 0 -8.08 -40.4 0 0 0
554 0 5 0 2.02 -6.0600000000000005 -40.4 0 0 0
555 0 5 0 4.04 -8.08 -40.4 0 0 0
556 0 5 0 6.0600000000000005 -6.0600000000000005 -40.4 0 0 0
569 0 5 0 0 -4.04 -40.4 0 0 0
570 0 5 0 2.02 -2.02 -40.4 0 0 0
571 0 5 0 4.04 -4.04 -40.4 0 0 0
572 0 5 0 6.0600000000000005 -2.02 -40.4 0 0 0
1341 21 1 -1.1128 0.15750156499621437 -7.7726381130357085 -36.17633481014222 0 0 0
1344 22 1 -1.1128 4.281502226492638 -7.777319863627396 -36.415429091139586 0 0 0
1346 22 2 0.5564 3.6569583448690333 -7.90627090231325 -35.69999907496165 0 0 0
1349 23 2 0.5564 7.537530431061486 -7.550961372912161 -36.555828567437636 0 0 0
1366 29 2 0.5564 0.7071447178350666 -4.374628191388206 -36.381830988668 0 0 0
1368 30 1 -1.1128 3.8115139106273705 -4.355786144637057 -36.32707292423451 0 0 0
1369 30 2 0.5564 4.768300037475756 -4.326157435061491 -36.374115532998815 0 0 0
1370 30 2 0.5564 3.5401860518968733 -3.438056420301452 -36.37881154276668 0 0 0
1373 31 2 0.5564 7.315097407775362 -4.041363910758225 -36.19439174490542 0 0 0
1391 37 2 0.5564 0.3407575871557933 -0.2801072392704 -37.00647361222565 0 0 0
1392 38 1 -1.1128 4.097187540579442 -0.355489745354007 -36.51286464813886 0 0 0
1394 38 2 0.5564 3.5458098730432055 -0.12008871793305215 -35.76513972376396 0 0 0
1395 39 1 -1.1128 7.810866061633993 -0.27399361312543385 -36.434198367138855 0 0 0
347 0 5 0 10.1 -8.08 -42.42 0 0 0
348 0 5 0 8.08 -6.0600000000000005 -42.42 0 0 0
351 0 5 0 14.14 -8.08 -42.42 0 0 0
352 0 5 0 12.120000000000001 -6.0600000000000005 -42.42 0 0 0
379 0 5 0 10.1 -4.04 -42.42 0 0 0
380 0 5 0 8.08 -2.02 -42.42 0 0 0
383 0 5 0 14.14 -4.04 -42.42 0 0 0
384 0 5 0 12.120000000000001 -2.02 -42.42 0 0 0
557 0 5 0 8.08 -8.08 -40.4 0 0 0
558 0 5 0 10.1 -6.0600000000000005 -40.4 0 0 0
559 0 5 0 12.120000000000001 -8.08 -40.4 0 0 0
560 0 5 0 14.14 -6.0600000000000005 -40.4 0 0 0
573 0 5 0 8.08 -4.04 -40.4 0 0 0
574 0 5 0 10.1 -2.02 -40.4 0 0 0
575 0 5 0 12.120000000000001 -4.04 -40.4 0 0 0
576 0 5 0 14.14 -2.02 -40.4 0 0 0
1347 23 1 -1.1128 8.134301164839863 -8.026892384069138 -35.97627882632415 0 0 0