LAMMPS data file via write_data, version 20 Nov 2019, timestep = 259000

576 atoms
2 atom types

1.2258942925177916e+00 1.9359683419082572e+01 xlo xhi
1.2587857059720395e+00 1.9326792005627880e+01 ylo yhi
-1.0292656412307739e+00 2.1614843352828924e+01 zlo zhi

Masses

1 28.0855
2 15.9994

Atoms # full

352 40 1 1.1000000000000001e+00 5.2642873205734606e+00 6.9255345120443002e+00 3.4570756615903315e+00 1 0 2
269 30 2 -5.5000000000000004e-01 4.1882907794161106e+00 4.5139779779263698e+00 6.9419914705955654e-01 1 0 0
91 11 1 1.1000000000000001e+00 6.3942466832371698e+00 7.0797009954790946e+00 7.8864894772694982e-01 0 1 0
27 3 2 -5.5000000000000004e-01 5.2252356809079572e+00 7.1419192522031683e+00 1.8899454097217920e+00 1 0 -1
104 12 2 -5.5000000000000004e-01 6.3563443546772582e+00 3.1507365522279986e+00 7.4008493868901515e-01 -2 1 0
54 6 2 -5.5000000000000004e-01 1.9015282375016107e+00 5.8917678330255612e+00 1.5936376119340916e+00 1 0 0
210 24 1 1.1000000000000001e+00 5.5991159660112775e+00 4.2559279258648157e+00 -5.5187384417228369e-02 1 0 1
571 64 2 -5.5000000000000004e-01 6.3098528930141686e+00 5.7442739623549786e+00 -1.0574461256872614e-01 1 0 2
263 30 1 1.1000000000000001e+00 2.9114920363023948e+00 5.4419258310823677e+00 3.2449956050460593e-01 0 1 0
536 60 2 -5.5000000000000004e-01 4.1189535018150547e+00 6.0294715607214169e+00 4.0209656215674112e+00 0 0 1
339 38 2 -5.5000000000000004e-01 2.8756869188481566e+00 9.1611954106042504e+00 -2.6922009298249261e-01 -2 -1 1
266 30 2 -5.5000000000000004e-01 6.0816312723426691e+00 8.3473695542847253e+00 -1.2975027632215919e-01 -2 1 2
24 3 2 -5.5000000000000004e-01 2.0652915114657775e+00 9.3727666047649851e+00 2.4526837602450402e+00 0 -1 0
525 59 1 1.1000000000000001e+00 5.6108470966305370e+00 1.7487903059426551e+00 1.2113688341402065e+00 0 1 0
376 42 2 -5.5000000000000004e-01 1.6494467240793671e+00 2.0932330331051281e+00 1.8654731397846458e-01 0 1 0
482 54 2 -5.5000000000000004e-01 5.1355455651652431e+00 8.3562740091966941e+00 4.2233005176296352e+00 0 -1 0
100 12 1 1.1000000000000001e+00 2.5272332990658573e+00 1.0019296131365008e+01 1.0394623237574807e+00 1 1 -1
229 26 2 -5.5000000000000004e-01 6.5919907109519800e+00 6.0482621402792303e+00 3.7580309591332224e+00 0 0 1
141 16 2 -5.5000000000000004e-01 4.1470700029983965e+00 1.7400117261767707e+00 5.2938002573646559e-01 0 -1 0
221 25 2 -5.5000000000000004e-01 3.3479166408579837e+00 6.6823923589760152e+00 -5.4281872222045802e-01 0 0 0
520 58 2 -5.5000000000000004e-01 5.6521612423245822e+00 1.6454242300687651e+00 2.8269835122192397e+00 0 1 1
431 48 2 -5.5000000000000004e-01 2.0206005355831582e+00 4.4884603321591854e+00 -6.9589447224469214e-01 0 0 1
297 33 2 -5.5000000000000004e-01 2.5720275566481261e+00 1.7568881102471874e+00 2.5740621888857289e+00 0 0 1
416 47 1 1.1000000000000001e+00 1.5500311177299559e+00 9.9716126356955979e+00 3.8192085727469873e+00 -1 1 -1
48 6 1 1.1000000000000001e+00 2.6775627632319550e+00 1.3309167572203577e+00 1.0919893911989145e+00 0 0 0
380 43 1 1.1000000000000001e+00 1.1127046195447710e+01 5.8002208115979830e+00 -9.3635462266070169e-01 0 0 0
274 31 2 -5.5000000000000004e-01 9.9729442650502360e+00 9.5734132786972541e+00 3.1967324792023755e+00 0 1 0
556 62 2 -5.5000000000000004e-01 9.8648440255965895e+00 6.5259569225445064e+00 -3.3185284242178337e-01 0 0 0
513 57 2 -5.5000000000000004e-01 1.2496293378244822e+01 8.8643542775427679e+00 2.3708286039298732e+00 1 1 1
65 8 1 1.1000000000000001e+00 7.8718467108030961e+00 5.1049421697654855e+00 3.7207196832609730e+00 0 1 0
230 26 2 -5.5000000000000004e-01 7.8682724999166469e+00 7.3084526897340130e+00 1.3258495543766498e+00 0 1 0
379 43 1 1.1000000000000001e+00 9.3939674794403860e+00 7.5462507108534309e+00 8.8049235046796448e-01 0 0 0
278 31 2 -5.5000000000000004e-01 1.0490905346652182e+01 7.2953803379107045e+00 2.0472133067211429e+00 0 0 0
348 39 2 -5.5000000000000004e-01 8.3399698951779460e+00 4.5910455069834466e+00 2.2825303062412097e+00 1 1 2
116 13 2 -5.5000000000000004e-01 1.0798133293321300e+01 3.8381300155051821e+00 2.2009882354522539e+00 -1 1 1
290 33 1 1.1000000000000001e+00 1.2212830832028882e+01 4.2999706239178650e+00 1.5688378520162036e+00 -1 0 0
354 40 1 1.1000000000000001e+00 9.3212250792582516e+00 3.4822922236144578e+00 1.6907570407832520e+00 1 0 0
462 52 1 1.1000000000000001e+00 1.1100124477456129e+01 8.4017693617830780e+00 3.0377913070660849e+00 0 -1 1
504 56 2 -5.5000000000000004e-01 9.2435513798666786e+00 3.2099056148912224e+00 1.0072351914374611e-01 2 0 1
257 29 2 -5.5000000000000004e-01 9.6377405694282050e+00 9.0212140759136190e+00 3.1791713719870107e-01 -1 0 1
440 49 2 -5.5000000000000004e-01 1.1848084475772021e+01 4.7620872539885148e+00 1.2670617157438380e-01 0 -1 1
528 59 2 -5.5000000000000004e-01 9.0962545920381590e+00 2.0067235946801660e+00 2.3123623184728688e+00 0 0 1
476 53 2 -5.5000000000000004e-01 9.0000582992989298e+00 6.0951814339467942e+00 4.2808252514910610e+00 1 1 0
367 41 2 -5.5000000000000004e-01 1.2938551095133398e+01 5.4458486152935732e+00 2.4665476496373886e+00 0 -1 0
455 51 2 -5.5000000000000004e-01 1.1023977067813307e+01 7.7605152667655126e+00 4.5379180361745837e+00 1 -1 1
140 16 2 -5.5000000000000004e-01 1.3020686106496202e+01 1.7810513342723135e+00 3.9324068288358172e+00 -1 0 1
171 19 2 -5.5000000000000004e-01 1.3162156971578867e+01 3.0085154250022130e+00 1.3915912018362864e+00 0 0 -1
532 60 1 1.1000000000000001e+00 9.3817286957139032e+00 9.9970535671065459e+00 -9.2935071244764855e-01 0 1 1
106 12 2 -5.5000000000000004e-01 7.6710567503310259e+00 3.7959408414255034e+00 4.6179228652477482e+00 -1 0 -1
79 9 2 -5.5000000000000004e-01 1.9264238583546899e+01 6.4065594448681891e+00 4.0633635905993266e+00 -1 2 0
175 20 2 -5.5000000000000004e-01 1.7346588330922302e+01 5.5702853795805067e+00 -3.8805184362396705e-01 0 0 1
426 48 1 1.1000000000000001e+00 1.6030925099200893e+01 4.6940203740280513e+00 -3.9561407173141294e-01 0 1 0
12 2 1 1.1000000000000001e+00 1.4051426665884508e+01 2.0990574217233195e+00 4.7229493380929144e-01 -1 -1 0
298 34 1 1.1000000000000001e+00 1.8762077863098213e+01 6.1009115390903013e+00 2.5885483955625808e+00 0 0 0
328 37 2 -5.5000000000000004e-01 1.7181753730970634e+01 9.7388556241797488e+00 1.6182991966527855e+00 -1 0 1
388 44 1 1.1000000000000001e+00 1.3924890550243440e+01 9.4911842867473322e+00 2.1087102495734018e+00 0 -1 2
535 60 2 -5.5000000000000004e-01 1.9025444487672864e+01 7.6125313380972468e+00 -3.8403310650726619e-01 0 1 0
390 44 1 1.1000000000000001e+00 1.3911439225370813e+01 5.5759231628831047e+00 3.7545731833955918e+00 0 0 0
246 28 1 1.1000000000000001e+00 1.6347519924897263e+01 4.2663017478515917e+00 2.5441045643629812e+00 -1 0 0
401 45 2 -5.5000000000000004e-01 1.6314059004066763e+01 2.9328589000142982e+00 3.4290427586406436e+00 -2 0 1
179 20 2 -5.5000000000000004e-01 1.7864709318108723e+01 4.8180558797885507e+00 2.4402152537212207e+00 -1 -1 -1
336 38 1 1.1000000000000001e+00 1.6591106713547667e+01 8.2197831203210203e+00 1.4868235148876408e+00 -1 0 0
358 40 2 -5.5000000000000004e-01 1.5060022736825919e+01 8.3108483936072872e+00 2.0933798573074776e+00 -1 1 0
422 47 2 -5.5000000000000004e-01 1.5431266659228408e+01 5.3937465093565162e+00 3.2276613021995839e+00 0 2 -1
67 8 2 -5.5000000000000004e-01 1.5856004106657263e+01 3.9138240607655908e+00 1.0296205418314481e+00 1 0 0
374 42 2 -5.5000000000000004e-01 1.6569467187903275e+01 7.8662804216096340e+00 -6.2134292382361567e-02 -1 0 1
306 34 2 -5.5000000000000004e-01 1.7689867779280007e+01 7.3497203080177727e+00 2.2903038378217420e+00 0 -1 0
507 57 1 1.1000000000000001e+00 1.7322816696142510e+01 1.9527540774287417e+00 4.2834664665363356e+00 -1 0 1
242 27 2 -5.5000000000000004e-01 1.3782264614030771e+01 6.9639000909486004e+00 4.5400700550181190e+00 0 0 0
357 40 2 -5.5000000000000004e-01 1.4774702745761656e+01 5.6411351544077295e+00 -7.3366963752543202e-01 0 0 0
129 15 1 1.1000000000000001e+00 1.7625716156052043e+01 6.9905716489473670e+00 -9.2414074163254856e-01 1 0 0
285 32 2 -5.5000000000000004e-01 5.5487982651328434e+00 2.3447907114581099e+00 9.9093886337639674e+00 0 1 1
486 54 2 -5.5000000000000004e-01 2.3327399492623710e+00 1.6043320484527008e+00 5.8933782780951516e+00 1 0 0
314 35 2 -5.5000000000000004e-01 5.1854638099766461e+00 3.8725520152993758e+00 5.1953662496654376e+00 1 0 2
33 4 2 -5.5000000000000004e-01 6.2188278167375222e+00 4.8969926906973438e+00 9.8509835455342571e+00 0 1 -1
45 5 2 -5.5000000000000004e-01 2.6523481472850960e+00 4.0685039341598408e+00 5.0207717933350064e+00 1 0 0
447 50 2 -5.5000000000000004e-01 4.1674325102897045e+00 8.3501867766275577e+00 6.6773612956521982e+00 0 0 1
569 64 1 1.1000000000000001e+00 3.9561054888256981e+00 4.9343210300435203e+00 5.1576243250320344e+00 1 0 1
461 52 1 1.1000000000000001e+00 1.6440489857912584e+00 3.0676783839762001e+00 5.7349093759819034e+00 1 0 0
334 38 1 1.1000000000000001e+00 5.3016673819539513e+00 8.9708233867818024e+00 5.7079351032419492e+00 0 0 0
468 52 2 -5.5000000000000004e-01 1.8754979178752336e+00 6.8995117729532316e+00 6.5832958644204300e+00 0 2 0
490 55 2 -5.5000000000000004e-01 3.2321798880111703e+00 7.1432271506577640e+00 8.7750789262298685e+00 0 0 1
108 12 2 -5.5000000000000004e-01 4.0715111055706030e+00 5.7487513795629441e+00 6.5764024209258913e+00 1 -1 0
11 2 1 1.1000000000000001e+00 3.4052550444216956e+00 7.0402909189755469e+00 7.1695985408932881e+00 0 -1 1
399 45 1 1.1000000000000001e+00 6.5056191416178706e+00 3.1228479663741693e+00 5.5839189289712818e+00 -1 1 0
47 6 1 1.1000000000000001e+00 4.0950585254724956e+00 1.7743508289070342e+00 9.5314426395311216e+00 0 0 0
28 4 1 1.1000000000000001e+00 1.8726000705637991e+00 6.7761710513410858e+00 9.5041909613410365e+00 1 0 0
387 43 2 -5.5000000000000004e-01 6.7207708251783735e+00 8.4938265266854955e+00 6.3140921672328156e+00 0 0 0
29 4 1 1.1000000000000001e+00 6.8814720686948707e+00 6.3778959573394127e+00 9.7863998118344178e+00 0 0 0
485 54 2 -5.5000000000000004e-01 6.1913166830566437e+00 1.5842499462835982e+00 5.3490286604894246e+00 1 0 0
68 8 2 -5.5000000000000004e-01 1.5711315462056143e+00 5.2598745671006144e+00 9.2302595001153254e+00 1 0 2
153 17 2 -5.5000000000000004e-01 1.5885673382672052e+00 8.8565391661553825e+00 4.9744811238328914e+00 0 1 1
233 26 2 -5.5000000000000004e-01 3.8786628491394404e+00 1.6248005812080175e+00 7.9631520333574155e+00 -1 1 0
441 49 2 -5.5000000000000004e-01 7.0007197123117431e+00 3.2928994731502375e+00 7.0487478553574814e+00 -1 -1 -1
552 62 1 1.1000000000000001e+00 9.5347533903679551e+00 1.0276288575167330e+01 7.3119912627959387e+00 -1 0 1
95 11 2 -5.5000000000000004e-01 9.2021810567773805e+00 1.0270739191414954e+01 5.7195200892309428e+00 -1 0 0
509 57 2 -5.5000000000000004e-01 1.6532081073009259e+01 9.8677876532173912e+00 5.3081232446147739e+00 -1 0 1
331 37 2 -5.5000000000000004e-01 1.7679676226191816e+01 9.9700752664882888e+00 1.0158722577579100e+01 -1 0 1
495 55 2 -5.5000000000000004e-01 8.6289246275633342e+00 1.4212291838673321e+00 7.4012451939005270e+00 0 0 -1
454 51 2 -5.5000000000000004e-01 7.2960282223982960e+00 6.8677721530414386e+00 8.3065086129332908e+00 1 0 2
208 24 1 1.1000000000000001e+00 1.2539429821539848e+01 1.0132333446322816e+01 7.2018636817959880e+00 -1 0 0
183 21 1 1.1000000000000001e+00 7.8608226106880092e+00 8.0453676977363209e+00 7.3551795080969278e+00 -1 -1 -1
241 27 2 -5.5000000000000004e-01 7.9375763832628081e+00 3.0573160331278393e+00 9.4734895738689602e+00 0 0 1
533 60 1 1.1000000000000001e+00 1.0003390993081288e+01 6.7920912355028458e+00 5.3430404512433718e+00 -1 1 1
258 29 2 -5.5000000000000004e-01 9.1548121574844625e+00 7.4153487813641616e+00 6.5397772251721467e+00 0 -1 1
418 47 2 -5.5000000000000004e-01 1.0716254606946810e+01 5.4734500372609949e+00 5.9052228690131843e+00 -2 0 1
292 33 2 -5.5000000000000004e-01 1.1388566312716545e+01 3.0362839008747207e+00 5.7231715429590562e+00 -1 0 1
197 22 2 -5.5000000000000004e-01 9.4941112109046788e+00 3.8778048737455646e+00 7.5547387027270592e+00 -1 0 0
236 27 1 1.1000000000000001e+00 8.3144675922656432e+00 2.9240906291908439e+00 7.9170714521330368e+00 -1 1 -1
551 62 1 1.1000000000000001e+00 1.0818283881142753e+01 4.1879906172159336e+00 6.7506222850406088e+00 0 -1 1
554 62 2 -5.5000000000000004e-01 1.2051524116734116e+01 4.4343436075943252e+00 7.7766900196462139e+00 0 0 2
413 46 2 -5.5000000000000004e-01 8.3381483027460064e+00 9.3831745811531384e+00 8.0219687095757184e+00 0 1 0
26 3 2 -5.5000000000000004e-01 1.2947357009374668e+01 6.9051416521391777e+00 7.0699315927053092e+00 0 0 -1
351 39 2 -5.5000000000000004e-01 1.1026950626622762e+01 9.7507393708995789e+00 7.5734046867716778e+00 1 -1 -1
228 26 1 1.1000000000000001e+00 1.2964728148036823e+01 2.8586433613827529e+00 5.2144230256504702e+00 0 0 1
312 35 2 -5.5000000000000004e-01 1.2956207747041814e+01 5.9565717621933247e+00 9.5858845775979784e+00 1 -1 2
395 44 2 -5.5000000000000004e-01 1.3030256308718066e+01 9.1912297436265131e+00 5.9532501872270034e+00 -1 1 1
561 63 1 1.1000000000000001e+00 1.3095155041177026e+01 5.6082184027455222e+00 8.0299992181915059e+00 -1 0 1
35 4 2 -5.5000000000000004e-01 1.8395731543183906e+01 2.9194501408875011e+00 4.9582881781326682e+00 0 0 0
309 35 1 1.1000000000000001e+00 1.8263020844516973e+01 9.3152867176079095e+00 8.8571590372893851e+00 -1 0 0
438 49 2 -5.5000000000000004e-01 1.7220782852667504e+01 9.1157340853468458e+00 7.7059426272504865e+00 -2 -1 0
275 31 2 -5.5000000000000004e-01 1.5568179910008210e+01 3.4409001432733337e+00 9.6946845197499378e+00 0 1 0
459 51 2 -5.5000000000000004e-01 1.2608322235496465e+00 3.7417424987498600e+00 7.1622555199310636e+00 0 0 0
113 13 2 -5.5000000000000004e-01 1.3965535785149175e+01 2.1897664598091149e+00 6.2451334260709830e+00 -1 1 0
147 17 1 1.1000000000000001e+00 1.8656037538973962e+01 4.3105115346191365e+00 8.4772970298355403e+00 -1 -1 0
434 49 1 1.1000000000000001e+00 1.5885536310085520e+01 4.3005464026783198e+00 8.3006869078012198e+00 -1 0 1
402 45 2 -5.5000000000000004e-01 1.7265621564893301e+01 5.0320149325587318e+00 8.3332756332295475e+00 -1 0 1
174 20 1 1.1000000000000001e+00 1.6619405513925670e+01 8.6249848554971109e+00 6.2657937911446018e+00 -1 -1 0
483 54 2 -5.5000000000000004e-01 1.4589186899368185e+01 5.0664523664126904e+00 7.8178091474908502e+00 -1 -1 0
107 12 2 -5.5000000000000004e-01 1.3618348518545488e+01 9.7176170578967476e+00 8.3548834319774326e+00 0 0 -1
88 10 2 -5.5000000000000004e-01 1.8549120475790588e+01 2.9436189477889383e+00 9.3328059231434146e+00 -1 1 0
548 61 2 -5.5000000000000004e-01 1.5206202910842977e+01 7.9424554064723480e+00 6.4423135992988909e+00 0 0 0
458 51 2 -5.5000000000000004e-01 1.8766403511734602e+01 7.7749946446305724e+00 9.1728570196929180e+00 0 -1 1
534 60 1 1.1000000000000001e+00 1.9213031087834793e+01 7.4110762603350944e+00 5.3302821201385013e+00 0 0 1
538 60 2 -5.5000000000000004e-01 1.7656599660676520e+01 7.6050192371740746e+00 5.5865396142559973e+00 0 0 0
261 29 2 -5.5000000000000004e-01 1.3552685752800970e+01 4.3288631716157226e+00 4.7430223059478287e+00 0 0 0
467 52 2 -5.5000000000000004e-01 1.6090134619837400e+01 3.2439380453827358e+00 7.0961170439552603e+00 0 -1 0
1 1 1 1.1000000000000001e+00 1.3718427517849337e+01 7.7102632457162787e+00 5.9464308701040007e+00 0 0 -1
39 5 1 1.1000000000000001e+00 1.5452846705196484e+01 1.8534181568189481e+00 6.6699128524717493e+00 -1 1 -1
55 7 1 1.1000000000000001e+00 1.3625052064729559e+01 9.8347067458520812e+00 9.9187537097296854e+00 0 -1 1
243 27 2 -5.5000000000000004e-01 1.6438006346867446e+01 1.2957273919171790e+00 5.5109342961813166e+00 0 1 0
194 22 2 -5.5000000000000004e-01 1.4230132213782256e+00 1.0141130707942674e+01 8.3426849206856151e+00 1 1 1
460 52 1 1.1000000000000001e+00 2.4082640632932097e+00 7.8546430707686596e+00 -1.0034477752885294e+00 1 0 1
101 12 1 1.1000000000000001e+00 6.6551287096419749e+00 3.4474679412080853e+00 1.0286497064750613e+01 0 0 0
544 61 2 -5.5000000000000004e-01 2.9349912286807314e+00 2.7483858550388769e+00 1.0082640244730671e+01 1 0 0
320 36 2 -5.5000000000000004e-01 4.2995796735229899e+00 5.2421658629228833e+00 1.4900281454143048e+01 0 -1 0
389 44 1 1.1000000000000001e+00 3.1528832830611013e+00 7.3507466104795220e+00 1.2172749601908583e+01 1 0 0
299 34 1 1.1000000000000001e+00 5.0950844584844246e+00 6.1920676566387280e+00 1.3886474450755326e+01 0 -1 0
87 10 2 -5.5000000000000004e-01 3.9564585573858357e+00 8.7197052682985206e+00 1.1706872372056297e+01 -1 0 1
177 20 2 -5.5000000000000004e-01 6.6186957042068038e+00 5.8197151566437828e+00 1.3633664489955356e+01 1 1 1
180 20 2 -5.5000000000000004e-01 4.2742007023814699e+00 6.2514510975748054e+00 1.2553904495795566e+01 2 0 -1
337 38 2 -5.5000000000000004e-01 2.5517483660948965e+00 2.3198041337329629e+00 1.4159908094755927e+01 1 0 1
7 1 2 -5.5000000000000004e-01 6.8185658038514267e+00 3.3796312112902291e+00 1.1929912403521763e+01 0 0 -1
408 46 1 1.1000000000000001e+00 6.4779391813341274e+00 2.4140598698058593e+00 1.3163032856975807e+01 -1 1 0
58 7 2 -5.5000000000000004e-01 2.3290224803288919e+00 7.5719431393572645e+00 1.3573920243248429e+01 0 1 0
207 23 2 -5.5000000000000004e-01 5.0410712790447647e+00 7.6282310358534611e+00 1.4589165057985277e+01 1 0 0
501 56 2 -5.5000000000000004e-01 6.6322859269089172e+00 8.9031617476566396e+00 1.2264532030095044e+01 0 -1 -1
286 32 2 -5.5000000000000004e-01 4.9206997343522829e+00 2.0778998813580172e+00 1.2948820926113786e+01 2 1 1
316 36 1 1.1000000000000001e+00 5.4875023609811322e+00 8.7957513516334398e+00 1.1122271139192895e+01 1 -1 -1
492 55 2 -5.5000000000000004e-01 2.1336228914595625e+00 6.8972215719078429e+00 1.1094055804371518e+01 1 0 1
346 39 2 -5.5000000000000004e-01 6.6218300392825507e+00 2.8896145573733962e+00 1.4747553221838023e+01 0 -1 1
165 19 1 1.1000000000000001e+00 1.3816637876158973e+00 2.6368047674951209e+00 1.0579644598797163e+01 0 0 -1
373 42 2 -5.5000000000000004e-01 4.1527398149910972e+00 9.7508191454511159e+00 1.5929362514714770e+01 1 1 0
425 48 1 1.1000000000000001e+00 3.7452431210758492e+00 1.3268506266450708e+00 1.3741602541943079e+01 0 1 0
572 64 2 -5.5000000000000004e-01 1.2366391492179396e+00 8.6366948412573841e+00 1.5714594835300238e+01 2 2 1
568 64 1 1.1000000000000001e+00 4.5701029309328014e+00 8.2106638603246473e+00 1.5993312671036636e+01 0 0 0
410 46 2 -5.5000000000000004e-01 1.9290863850128780e+01 9.8189438060474092e+00 1.3414615896052883e+01 -1 1 1
325 37 1 1.1000000000000001e+00 9.7580742473606463e+00 1.2984034715861492e+00 1.6644750067484630e+01 0 0 0
315 35 2 -5.5000000000000004e-01 1.1047627895955632e+01 1.6968338230445115e+00 1.5804066477419871e+01 0 -1 -1
122 14 2 -5.5000000000000004e-01 1.2332607911770573e+01 9.1113832392519960e+00 1.0631673409698365e+01 0 1 1
60 7 2 -5.5000000000000004e-01 7.8723801826119510e+00 7.2524309941961143e+00 1.5446938493894924e+01 1 0 -1
118 14 1 1.1000000000000001e+00 8.0679749280228954e+00 6.0872880088810959e+00 1.4319478012248055e+01 0 0 0
559 63 1 1.1000000000000001e+00 9.4423460866204572e+00 6.0874046894292482e+00 1.1604122998544989e+01 0 1 1
206 23 2 -5.5000000000000004e-01 1.0576543441781784e+01 7.1448677622084791e+00 1.1088617825868322e+01 0 0 -1
549 61 2 -5.5000000000000004e-01 9.2329162070487474e+00 6.2613277954566904e+00 1.3171650724302406e+01 0 1 -1
543 61 1 1.1000000000000001e+00 1.0703521790009630e+01 3.3453116641482548e+00 1.1779696053195094e+01 -1 0 0
176 20 2 -5.5000000000000004e-01 8.3252001670203910e+00 4.7418202284797442e+00 1.5187546921711826e+01 1 0 1
156 18 1 1.1000000000000001e+00 1.2294287228854646e+01 4.3792521169905898e+00 1.4312139129171918e+01 -1 -1 1
62 7 2 -5.5000000000000004e-01 1.1656324499519640e+01 3.9603250764726079e+00 1.2863336973605302e+01 0 0 -1
239 27 2 -5.5000000000000004e-01 1.1373444761002199e+01 8.7263840173698615e+00 1.2989621626467793e+01 1 -1 0
253 29 1 1.1000000000000001e+00 1.1778216303163001e+01 7.9879865024531780e+00 1.1634450636818961e+01 0 2 0
521 58 2 -5.5000000000000004e-01 9.7616255629651292e+00 2.2262514893664589e+00 1.2474841483705903e+01 0 1 0
558 62 2 -5.5000000000000004e-01 1.0443617276120921e+01 8.2886989227433485e+00 1.5424027945201823e+01 0 1 -2
356 40 2 -5.5000000000000004e-01 9.7911906801493327e+00 4.5728623540885280e+00 1.1263481393500971e+01 1 0 0
444 50 1 1.1000000000000001e+00 1.0291774493231822e+01 9.1239362566930708e+00 1.4078013133293364e+01 1 0 0
419 47 2 -5.5000000000000004e-01 1.1176989403975099e+01 4.7759949835810476e+00 1.5407664578418325e+01 1 1 0
276 31 2 -5.5000000000000004e-01 8.8114742766585330e+00 9.3106099916002449e+00 1.3529372819245998e+01 0 0 -1
203 23 2 -5.5000000000000004e-01 1.3069149243218218e+01 3.0466603986167069e+00 1.4789781301894415e+01 0 1 1
477 53 2 -5.5000000000000004e-01 8.1232574943637488e+00 6.4918026738419252e+00 1.0809838886492402e+01 0 -1 0
289 33 1 1.1000000000000001e+00 7.7606774458688879e+00 9.9644802020863050e+00 1.2557418034552297e+01 0 0 0
198 22 2 -5.5000000000000004e-01 1.2979957570583860e+01 6.9134355912943617e+00 1.1844560564157460e+01 0 1 0
209 24 1 1.1000000000000001e+00 1.2602461551319308e+01 1.5396780824966845e+00 1.5289718067088190e+01 0 -1 0
405 45 2 -5.5000000000000004e-01 1.3233157389238448e+01 5.7165658254582921e+00 1.4412689794097254e+01 -1 1 0
370 42 1 1.1000000000000001e+00 7.5756716964796853e+00 3.5213702289143698e+00 1.5882413745867970e+01 0 0 0
392 44 2 -5.5000000000000004e-01 1.1500303530453477e+01 2.6235363422867581e+00 1.0468613238562378e+01 -1 0 1
149 17 2 -5.5000000000000004e-01 1.6168870819999004e+01 3.6139665370741376e+00 2.1084919017838779e+01 -2 0 -1
93 11 1 1.1000000000000001e+00 1.9253057071352586e+01 8.4440806717398686e+00 1.4143223798898836e+01 -1 0 -1
94 11 2 -5.5000000000000004e-01 1.9086162906674758e+01 3.7271685070277401e+00 1.1680436005887177e+01 -1 0 0
74 9 1 1.1000000000000001e+00 1.9095039250689403e+01 2.1784324716010151e+00 1.4485624676652231e+01 -1 0 -2
109 13 1 1.1000000000000001e+00 1.7811193334598933e+01 4.0946769739626241e+00 1.2627113291957285e+01 -2 0 0
234 26 2 -5.5000000000000004e-01 1.8237358862841006e+01 3.4607850604735826e+00 1.4043437162148072e+01 0 -1 -1
427 48 2 -5.5000000000000004e-01 1.6438377586937229e+01 3.4266384284260667e+00 1.2169889219486780e+01 -1 1 0
41 5 2 -5.5000000000000004e-01 1.5448256560794379e+01 6.8833063692159868e+00 1.3479058205785396e+01 0 0 0
83 10 1 1.1000000000000001e+00 1.6910035111767847e+01 7.0544997375090199e+00 1.2892284484849455e+01 -1 2 0
64 8 1 1.1000000000000001e+00 1.4711959785952043e+01 6.2701052486652431e+00 1.4760917782699119e+01 0 2 0
9 1 2 -5.5000000000000004e-01 1.7025223497690604e+01 8.1670301012035011e+00 1.1763430824692005e+01 -1 0 -1
349 39 2 -5.5000000000000004e-01 1.7853460391257144e+01 7.6020503102982993e+00 1.4093045856141556e+01 1 0 -1
117 13 2 -5.5000000000000004e-01 1.4114249347109711e+01 4.4308198916054096e+00 1.1519244857149426e+01 0 1 -2
411 46 2 -5.5000000000000004e-01 1.7606660035940152e+01 5.6678598247646628e+00 1.2602112976212540e+01 -1 1 0
291 33 1 1.1000000000000001e+00 1.6513234786405317e+01 9.5424816213020058e+00 1.1176722621748853e+01 -1 -2 -1
255 29 1 1.1000000000000001e+00 1.5121790964890531e+01 3.2029436507888023e+00 1.1254960592076669e+01 -1 0 0
313 35 2 -5.5000000000000004e-01 1.5571597839731977e+01 4.9277173524030982e+00 1.5154117796609890e+01 -1 0 1
327 37 1 1.1000000000000001e+00 1.3841295692004993e+01 5.9279375995620578e+00 1.0946417962511667e+01 0 0 -1
436 49 2 -5.5000000000000004e-01 1.4627642868314657e+01 1.6841470754916334e+00 1.1515289202830482e+01 -1 -1 1
330 37 2 -5.5000000000000004e-01 1.4933883592157487e+01 9.9927662908260420e+00 1.5566845454469656e+01 1 -1 2
178 20 2 -5.5000000000000004e-01 1.5089099040684646e+01 9.3756511647154870e+00 1.0456972540188360e+01 0 0 1
487 55 1 1.1000000000000001e+00 3.3277104246132589e+00 5.5544364673823008e+00 1.6172102893235575e+01 1 0 0
188 21 2 -5.5000000000000004e-01 3.4731994004895230e+00 7.0950222526275217e+00 1.6428994760404592e+01 0 2 -1
484 54 2 -5.5000000000000004e-01 5.5519775896302486e+00 9.5309469757930838e+00 2.0195744796936438e+01 1 1 -1
59 7 2 -5.5000000000000004e-01 5.9078951931935242e+00 8.1538587881680495e+00 1.6981628294896872e+01 1 0 0
196 22 2 -5.5000000000000004e-01 1.8606298587826906e+00 5.0369502783797646e+00 1.6079329594544028e+01 0 0 -2
73 9 1 1.1000000000000001e+00 4.7003709024087144e+00 2.4370036621002114e+00 2.0223264330847712e+01 -1 1 -2
524 59 1 1.1000000000000001e+00 5.3855953333134563e+00 4.4601422539613953e+00 1.8031659848517002e+01 1 1 1
529 59 2 -5.5000000000000004e-01 2.0216355121461600e+00 7.7553451226576602e+00 2.0090892068604298e+01 0 -1 -1
44 5 2 -5.5000000000000004e-01 4.0073759715558364e+00 4.8006434272945668e+00 1.7417694606128101e+01 0 0 0
512 57 2 -5.5000000000000004e-01 5.1447588464302587e+00 3.0543523714183758e+00 1.8777899603084151e+01 0 0 0
563 63 2 -5.5000000000000004e-01 5.7898082321897020e+00 5.7149611845431174e+00 1.9011107273184997e+01 0 2 0
574 64 2 -5.5000000000000004e-01 6.6060427000317858e+00 4.2584633868594208e+00 1.6997461025430340e+01 0 1 1
40 5 2 -5.5000000000000004e-01 3.0641350348153935e+00 2.4384496950608332e+00 2.0515453990996001e+01 0 0 0
182 21 1 1.1000000000000001e+00 6.6810550328834708e+00 8.9054204000518489e+00 2.1133652073288431e+01 0 0 -1
66 8 1 1.1000000000000001e+00 1.4464422005013395e+00 1.7017875282956763e+00 1.7484903004228990e+01 0 0 -2
189 21 2 -5.5000000000000004e-01 5.2839675988118495e+00 3.6337769748529340e+00 2.1190612486436528e+01 0 1 -1
248 28 2 -5.5000000000000004e-01 1.3998775309803007e+00 3.2243404571734211e+00 1.7931848782345114e+01 -1 1 0
154 18 1 1.1000000000000001e+00 1.8490321228402080e+00 2.9687806069301219e+00 2.1431153832684750e+01 -1 0 -1
61 7 2 -5.5000000000000004e-01 1.5383404131569742e+01 6.3270047763392760e+00 1.0588678453920339e+01 -1 -2 -1
214 24 2 -5.5000000000000004e-01 7.2723039581552209e+00 7.6096266194848727e+00 2.0390314687619210e+01 2 1 -2
343 39 1 1.1000000000000001e+00 7.2122073154841617e+00 6.3737126000343087e+00 1.9371243332285268e+01 -1 0 1
296 33 2 -5.5000000000000004e-01 7.8483805772030646e+00 9.9458109204965659e+00 2.1324753714409503e+01 1 -1 -1
23 3 2 -5.5000000000000004e-01 1.2367683235004280e+01 6.7398510388148631e+00 2.1422010863787854e+01 0 0 -1
145 17 1 1.1000000000000001e+00 1.0231448440406222e+01 1.5949347276245165e+00 1.9684380088389261e+01 1 0 -1
526 59 2 -5.5000000000000004e-01 1.1630066594749627e+01 2.1104877986891748e+00 2.0315578745787207e+01 -1 0 0
381 43 1 1.1000000000000001e+00 7.5230877794540287e+00 7.9326037868917201e+00 1.6918080689368963e+01 1 0 -1
99 11 2 -5.5000000000000004e-01 8.5550852927102916e+00 2.4097209331381180e+00 1.6496639074472043e+01 -1 1 0
480 54 1 1.1000000000000001e+00 1.3151886523011607e+01 1.6598740045727109e+00 2.0137026129962116e+01 -1 0 -2
249 28 2 -5.5000000000000004e-01 1.2810072292743087e+01 8.7452790084870031e+00 1.6399417866746539e+01 1 -1 0
322 36 2 -5.5000000000000004e-01 8.0725307333963894e+00 9.3774679367766520e+00 1.7327573879896597e+01 1 -1 -2
557 62 2 -5.5000000000000004e-01 7.9223671936173856e+00 6.8688016534591458e+00 1.8011130670238337e+01 0 0 0
72 8 2 -5.5000000000000004e-01 1.0081303993696213e+01 9.3825528156698681e+00 2.0394483460790184e+01 1 0 0
160 18 2 -5.5000000000000004e-01 1.1520440110126835e+01 6.6508031626410515e+00 1.7116166181417995e+01 1 -1 -1
302 34 2 -5.5000000000000004e-01 1.0654178510799413e+01 5.0023553583027232e+00 2.0408626695176714e+01 0 1 0
244 28 1 1.1000000000000001e+00 1.1345244717686615e+01 8.1649610175558571e+00 1.6673485541513706e+01 -1 0 -1
56 7 1 1.1000000000000001e+00 1.1121408722822004e+01 9.8523194640448732e+00 1.9291380490432481e+01 0 0 0
382 43 2 -5.5000000000000004e-01 8.1402441071943787e+00 5.2249855831012759e+00 1.9953709877870708e+01 0 -1 0
515 58 1 1.1000000000000001e+00 1.1199690245280125e+01 5.0553309462647196e+00 1.7000480401482335e+01 -1 0 0
417 47 1 1.1000000000000001e+00 9.4999093578773621e+00 4.4478516215005781e+00 1.9447297447480970e+01 0 1 0
148 17 2 -5.5000000000000004e-01 9.9307173168588090e+00 4.7161746588738165e+00 1.7864923594600029e+01 0 -1 -1
384 43 2 -5.5000000000000004e-01 9.3019365139532333e+00 2.8876908253139550e+00 1.9585721917231218e+01 0 1 -1
301 34 2 -5.5000000000000004e-01 1.0736196680844538e+01 9.0907759169311610e+00 1.7893884783131760e+01 0 0 1
530 59 2 -5.5000000000000004e-01 1.2577576440608794e+01 9.2233355631349774e+00 1.9607723493402688e+01 1 -1 1
31 4 2 -5.5000000000000004e-01 1.2434152137177168e+01 4.1019899130679480e+00 1.7480744302682353e+01 1 -1 -2
475 53 2 -5.5000000000000004e-01 1.3526182951453743e+01 5.1978154100679763e+00 1.9713500025428985e+01 0 1 0
144 16 2 -5.5000000000000004e-01 1.6610427058995029e+01 1.6753573907264585e+00 1.9320966907118340e+01 0 1 -1
466 52 2 -5.5000000000000004e-01 1.8973902407313162e+01 1.7249264974824163e+00 1.6007039417928937e+01 -1 -1 -1
329 37 2 -5.5000000000000004e-01 1.9205321366130761e+01 5.8392998807537975e+00 1.8511924215521432e+01 -1 0 1
537 60 2 -5.5000000000000004e-01 1.4638817283981838e+01 1.0258813308335549e+01 2.0687976029173228e+01 1 2 0
386 43 2 -5.5000000000000004e-01 1.7640836824213970e+01 7.0485819861459111e+00 2.0138386453834023e+01 -1 1 -2
573 64 2 -5.5000000000000004e-01 1.4563083516643525e+01 7.6369629098604150e+00 2.0163517050962781e+01 1 1 0
565 63 2 -5.5000000000000004e-01 1.4777533926216213e+01 9.2538407313760516e+00 1.8091448868663122e+01 -1 0 -1
57 7 1 1.1000000000000001e+00 1.9054089479650351e+01 4.6771596247595673e+00 1.7377815460249970e+01 0 0 -1
398 45 1 1.1000000000000001e+00 1.3821985044105343e+01 6.3203063731737732e+00 2.0822773374174517e+01 -1 1 0
527 59 2 -5.5000000000000004e-01 1.8628901849948974e+01 2.8141160000092462e+00 2.0642871324707400e+01 -2 0 1
437 49 2 -5.5000000000000004e-01 1.4867989973935027e+01 7.3871798620325784e+00 1.5901019434411348e+01 -1 -1 0
163 19 1 1.1000000000000001e+00 1.4190462385076927e+01 9.1384777401791784e+00 1.9600750874864922e+01 0 -2 0
443 50 1 1.1000000000000001e+00 1.8912038464555550e+01 7.2780915692025880e+00 1.9205108266680490e+01 0 0 0