LAMMPS data file via write_data, version 30 Jul 2021, timestep = 90000

576 atoms
2 atom types

0.910777522101565 19.67480018949893 xlo xhi
2.1092682236518137 18.476309487947546 ylo yhi
-4.1701120819606885 24.75568979356097 zlo zhi

Masses

1 28.0855
2 15.9994

Atoms # full

236 27 1 1.1 2.146486567188554 3.881795174165509 -1.1897662002274723 -1 1 0
440 49 2 -0.55 2.7557424604218563 5.170408480036516 -2.0272304888663615 0 -1 1
503 56 2 -0.55 4.715543958065282 6.135073875162957 -0.6343380859363827 0 -1 1
547 61 2 -0.55 4.292306990221142 4.888742726811209 1.8113135159413896 -1 1 1
349 39 2 -0.55 5.16105443804865 5.386037078056204 -3.007750302629645 1 0 0
291 33 1 1.1 4.412585357363013 6.306269703315352 0.9035703033180308 0 -1 0
232 26 2 -0.55 3.780766202884669 7.597275803391091 -2.702517081504904 0 0 0
362 41 1 1.1 4.05496135729772 6.095700624566115 -2.152305915907752 -1 0 0
190 22 1 1.1 6.71957727247813 5.041854007666114 -3.0633259389669636 0 -1 0
314 35 2 -0.55 5.695711089935187 7.084664812259868 1.4756186731005476 1 -1 0
334 38 1 1.1 4.007404409802668 3.311960386962735 1.5890925131586147 0 1 0
487 55 1 1.1 4.060236051454134 9.033456363426017 -3.568262012212033 1 0 2
88 10 2 -0.55 2.874045534521837 3.4208505345020592 0.2561324062499006 1 2 -1
31 4 2 -0.55 3.1140068598560817 7.16051968930102 1.2510309603430956 1 -2 0
514 58 1 1.1 2.784898648175254 8.492134204885117 2.0213363157023374 0 0 1
204 23 2 -0.55 6.778946754925199 8.954383704020438 -0.13462070643525817 -1 0 0
384 43 2 -0.55 1.981699887278853 2.5903951171429083 -2.072693638568079 0 1 0
179 20 2 -0.55 3.0665698555507355 9.934314259176562 1.4676177774642727 1 0 1
398 45 1 1.1 6.933553509365148 8.068309146862541 1.234501938125297 0 1 0
485 54 2 -0.55 7.123088281552293 3.7229268329866434 -2.1388336986107856 0 1 1
554 62 2 -0.55 7.609704420832148 6.254733387769078 -2.5595551560154934 0 1 1
253 29 1 1.1 7.76162668060776 9.757081033026006 -1.1479392146968668 -1 -1 1
557 62 2 -0.55 8.288241491817493 7.169764431163827 1.0260672207246322 0 1 1
367 41 2 -0.55 8.108351860193139 8.77896522435201 -2.3366983405206 -1 0 1
129 15 1 1.1 8.579460499935914 7.43559072416849 -3.0161083557592017 0 1 -1
532 60 1 1.1 7.39034157700542 2.3434763279658037 -1.4048734354109118 0 1 0
337 38 2 -0.55 7.655748905399772 2.4429497655948 0.1562081023034941 0 -1 -1
101 12 1 1.1 6.796110384851969 2.3278840660192177 1.523866617122975 1 1 0
308 35 1 1.1 9.88348478836162 6.75151402349239 0.8068481281102567 0 1 0
112 13 2 -0.55 5.288715399560558 2.5207995257733447 0.9877001574238771 0 2 0
295 33 2 -0.55 6.937414287570231 3.3990807679678436 2.7739123780366475 0 -1 1
537 60 2 -0.55 6.915198628302096 9.0650841727468 2.445520306675833 1 -1 0
392 44 2 -0.55 4.797722081608826 10.205938986952797 -2.7164385640461344 0 0 1
71 8 2 -0.55 9.047864075814596 10.202525623100886 -0.2463629438145623 1 -3 0
169 19 2 -0.55 9.058801753720665 10.163300541005734 2.528340989049823 0 -1 0
115 13 2 -0.55 3.5393611144951893 2.554090927606378 2.9321726067865166 0 0 -1
535 60 2 -0.55 10.25614106514495 5.9906062348117315 2.1460816706376886 1 -1 1
22 3 2 -0.55 10.21008905986619 5.75467274463997 -0.4294363942416982 -1 0 0
481 54 2 -0.55 1.0243698534370125 4.820699542790207 8.453458652341379 -1 0 1
167 19 2 -0.55 2.659426266393932 9.672296196463003 -3.987867523708441 0 0 1
574 64 2 -0.55 10.101736925011199 7.121166453075638 -2.558618353030181 0 1 0
81 9 2 -0.55 5.810426860199946 16.175510732253354 -4.0229356698776195 0 0 0
505 57 1 1.1 1.4120793728234926 10.509268214117569 -3.519499841895531 1 0 0
467 52 2 -0.55 9.504626612776141 18.413273779564456 -3.0308885813363777 1 -1 1
134 15 2 -0.55 3.9303546908797085 17.269995271804884 -2.441685756668 1 0 -1
76 9 2 -0.55 2.2541560102037703 16.502082361496626 -0.7800682574016079 2 -1 0
16 2 2 -0.55 1.6805338274076904 14.698440395026205 1.1547931800430926 0 1 0
499 56 2 -0.55 5.252033635488226 15.11632200767802 -1.4850807497483705 1 0 1
66 8 1 1.1 5.343500917655435 16.48620981701521 -2.454748427987133 0 -2 0
518 58 2 -0.55 5.290579082077965 14.147720908742995 1.0179020975103286 0 1 1
21 3 1 1.1 5.783265437157363 13.920573741577506 -0.48170974731704375 0 -1 -1
222 25 2 -0.55 5.128959016355337 12.56601232356974 -1.0711482199303786 0 0 -1
356 40 2 -0.55 2.0318517325859067 11.974633049831219 -3.043312396280872 0 0 0
100 12 1 1.1 5.6381114863133535 11.570378278582636 -2.2589824734218014 0 -1 0
380 43 1 1.1 2.3878152679946307 17.374438846863473 -2.1508410151303017 0 1 1
452 51 1 1.1 1.3394376654808497 15.245575602668588 -0.4334739701040067 1 -2 1
460 52 1 1.1 1.635166610869321 13.511795202008896 -3.251624524406288 1 0 1
463 52 2 -0.55 6.461985524257294 17.532607879778997 -1.7883924297668694 0 -1 0
526 59 2 -0.55 5.870050617809673 12.515303997663658 -3.5238560313236373 -1 0 1
393 44 2 -0.55 1.3296594612756967 16.731082926458008 -3.2335943018934907 1 0 2
99 11 2 -0.55 1.6853255500932038 14.21781417720801 -1.6973536711660298 1 0 0
251 28 2 -0.55 7.0289948993276585 11.042316912295147 -1.6743666944577573 0 0 0
493 55 2 -0.55 7.367025612330708 13.893117222384863 -0.4704325012133812 1 -1 0
28 4 1 1.1 8.838310458126578 13.534755968395876 0.1484686595868232 0 -1 0
252 28 2 -0.55 9.163108685115391 15.972117438213537 -2.1728001410836666 0 -2 0
225 25 2 -0.55 9.790595657255528 12.971215449428719 -1.0213003761353772 0 -1 1
267 30 2 -0.55 9.725923705036362 14.611836746483094 0.9516651610536013 0 0 1
388 44 1 1.1 9.465821865188264 16.8521888345958 -3.448666353815085 1 0 1
146 17 1 1.1 9.51519619618808 10.872530827391452 1.16312737565369 -1 0 0
240 27 2 -0.55 8.737174091445029 12.284947287943309 1.1661822993538336 -1 0 0
263 30 1 1.1 4.987165711558607 13.97617340181218 2.6230964957997607 -1 1 1
75 9 1 1.1 1.917189076122724 14.392319197889602 2.7300005493198753 0 -1 0
53 6 2 -0.55 6.874160105870642 17.161455353532713 2.091883060236392 0 0 0
459 51 2 -0.55 2.7005833706370286 8.39302647341049 3.581760613189235 0 1 1
500 56 2 -0.55 6.815080626788306 2.7989655591889675 9.599942767607088 0 2 0
178 20 2 -0.55 3.379957543188015 8.574997614777526 6.200828808583338 0 0 -1
396 44 2 -0.55 3.0268271077167617 7.504552599006911 8.696650852179495 1 0 0
386 43 2 -0.55 5.448050212369887 7.5303298276727215 7.842000953958458 1 2 -1
371 42 1 1.1 3.940142663547142 7.422340160856243 7.356945820890783 0 0 0
529 59 2 -0.55 3.9387374906925166 5.925397776895281 6.470199665260282 0 0 1
184 21 2 -0.55 5.453830072934055 4.015482543629864 7.567697530440812 -1 1 1
476 53 2 -0.55 5.831929789215456 4.746173638116293 5.043352048619801 -1 0 1
352 40 1 1.1 4.713593610736302 4.554407051875303 6.198763627306431 0 -1 0
372 42 1 1.1 6.082391736192019 2.735445566671149 8.206716339281087 0 2 0
430 48 2 -0.55 6.651435024051059 8.965305624779687 9.916468342273742 2 0 0
550 62 1 1.1 6.829721514399088 8.121558672314038 8.428577677270043 0 1 0
416 47 1 1.1 2.4223251366191594 8.330277150477029 9.979235060349437 2 0 0
391 44 2 -0.55 3.9034674807793985 3.2582043160069243 5.559280290242588 0 1 1
498 56 1 1.1 3.111593925735769 9.419718486209696 4.819763436519099 1 0 0
59 7 2 -0.55 8.194835399010854 8.834493481548812 4.702131451330791 0 -2 0
325 37 1 1.1 7.1591107225825645 4.06400384289657 4.276792297130808 0 1 1
418 47 2 -0.55 8.058798420444647 6.966506226359286 8.747673301560962 -1 0 0
104 12 2 -0.55 7.65310216244263 2.967805185398732 5.269217870293227 1 1 0
397 45 1 1.1 7.868763841576097 9.874840484096472 3.4674779385689773 0 -1 1
370 42 1 1.1 8.708561593013394 9.206707316233631 6.1904863415600175 -1 -1 1
490 55 2 -0.55 8.266004078683077 5.199027704158212 3.956013981145003 0 -2 0
306 34 2 -0.55 3.338044536508792 9.798107970982722 10.090491493911136 0 -1 -1
379 43 1 1.1 9.44561899933191 6.232278589310916 8.98611517118819 -1 1 1
248 28 2 -0.55 7.590049861246312 9.031402516025066 7.350809078851797 0 1 0
465 52 2 -0.55 1.589717825487291 3.261526135516821 4.436063635625879 1 1 2
226 26 1 1.1 2.9973417218955576 2.4459881430972223 4.477942888991332 0 1 0
510 57 2 -0.55 10.048990883841206 8.334741233305472 6.497189441740431 -1 0 0
462 52 1 1.1 9.74694382993071 5.2722222891009265 3.4195059511834196 0 -1 1
276 31 2 -0.55 4.570514548904417 10.032346927723482 4.300395843301766 1 0 -1
197 22 2 -0.55 1.9926893833483597 10.55049203169058 4.761892796209933 -1 -1 0
50 6 2 -0.55 7.077301696823537 11.107745238700511 4.136773201677181 -1 1 0
492 55 2 -0.55 3.5476340117944183 14.581983896349964 2.9349998113530487 1 -2 0
14 2 2 -0.55 1.43104251516229 12.832362298699534 3.149174147412565 -1 -1 0
44 5 2 -0.55 8.998766940857923 13.245042227923259 5.335207748179534 -1 -2 -1
79 9 2 -0.55 9.084763410722772 10.774909349226144 6.292790720503885 -1 0 0
85 10 2 -0.55 8.61771907381916 15.965709685699846 3.6103477327653275 -1 -1 0
519 58 2 -0.55 5.043542302456893 12.508488518857721 3.3374839254378745 -1 -1 0
216 24 2 -0.55 7.3751619506780965 12.361204575718553 7.463446566122643 1 0 1
274 31 2 -0.55 6.518449589892184 17.186750501107486 4.577571785541467 1 0 -1
110 13 1 1.1 7.033517911143483 16.241935797245453 3.364638233712641 0 -1 0
2 1 1 1.1 9.685577542666548 16.5462678365201 4.724577241583197 -1 -1 -1
237 27 1 1.1 5.723055632071986 12.344074819076123 7.54316241298217 0 1 -1
243 27 2 -0.55 1.1391852618871743 15.41665555131181 3.811440348910355 1 -1 0
191 22 1 1.1 4.126364310309863 11.170824759311165 10.06029367439531 1 1 0
540 60 2 -0.55 6.527340545954302 17.98908791448026 7.203941451660142 1 1 0
136 16 1 1.1 7.296596306835559 17.842705972185296 5.818492871994204 1 0 -1
299 34 1 1.1 8.405548395769467 12.1546833798243 6.272790378109364 0 0 0
106 12 2 -0.55 5.430815799715152 11.771244102490071 6.022698268908188 1 0 -1
113 13 2 -0.55 2.748886892549435 17.277911261318152 4.861188374657781 0 -2 0
441 49 2 -0.55 6.153757735905903 14.90358407231796 3.2779810122562947 0 -2 1
9 1 2 -0.55 5.046022325713536 11.482967437249401 8.81135124305575 0 -1 -1
402 45 2 -0.55 1.9092597690374236 14.946899316283535 6.229002648253829 0 0 2
305 34 2 -0.55 5.415931480766057 13.930641938376016 7.6098887931453225 0 -2 1
506 57 1 1.1 1.592216170452728 16.1621330640338 5.227425369581465 0 1 1
64 8 1 1.1 5.486887696051343 11.411242804845966 4.465976810657662 1 -1 -1
175 20 2 -0.55 8.690803705671135 17.054694591363916 5.895949272948641 0 -1 -1
220 25 2 -0.55 2.4986016336328754 12.611692108493456 7.483523148464922 1 0 1
442 50 1 1.1 1.394340340990917 13.547471608611882 6.7843692896697885 0 0 0
123 14 2 -0.55 10.096409670888004 4.614154236072467 -2.8694642592843453 0 2 0
508 57 2 -0.55 9.348989905642087 5.399434679370327 10.272069680598962 0 -1 1
55 7 1 1.1 4.328680166225325 3.4187103466979902 16.185992394525236 1 0 -1
511 57 2 -0.55 3.9547371305611594 4.791752843387798 15.488298401614406 1 1 -1
259 29 2 -0.55 5.933190221808824 5.686374080509513 13.978886743868932 -1 2 0
264 30 1 1.1 4.610805956736779 6.052215824348326 14.77329936792946 1 0 0
42 5 2 -0.55 3.577917403048231 6.671565821900321 13.7341671584981 1 0 0
507 57 1 1.1 2.2309494623287995 8.964482299362004 16.918692257657344 1 0 0
357 40 2 -0.55 5.044270842854044 7.010215603648683 16.057173425186473 1 -1 -1
453 51 1 1.1 2.265199861761642 6.556034048022453 12.72896216102729 0 -1 0
358 40 2 -0.55 1.419752803284735 9.066205126865142 15.513513490365595 2 -1 -1
247 28 2 -0.55 2.126486005995399 5.069006773357067 12.038721281593226 1 -1 0
125 14 2 -0.55 6.067631766462904 10.112765744265642 12.43373152256074 0 1 -1
409 46 2 -0.55 6.4929108699173375 7.491009274314816 12.09165952032471 0 -1 1
202 23 2 -0.55 1.8978985753682063 2.6932706885851507 13.012390864587237 0 0 0
29 4 1 1.1 2.1174308474521824 3.4810381814904616 11.55920584114867 0 1 0
183 21 1 1.1 6.831413399527644 8.95666808555293 11.528518375326367 0 0 0
285 32 2 -0.55 5.935812676467745 3.1932086983965706 16.1665335118476 0 0 0
562 63 2 -0.55 5.957775705967677 9.818016968895114 15.333246712039553 1 0 1
377 42 2 -0.55 2.495486814211497 7.579668625716539 11.473566551645918 0 1 1
368 41 2 -0.55 7.516163301800389 7.676444337275346 14.453130495522899 0 0 0
208 24 1 1.1 7.094245060060811 6.621165688422625 13.33864850465499 0 -1 -1
326 37 1 1.1 7.459439932670542 9.132210584592865 15.219536466767039 0 -1 0
90 10 2 -0.55 9.941586587926295 4.245826113032337 15.795642071046169 1 0 -1
568 64 1 1.1 9.17685453713956 4.776740134537389 11.857694489588484 1 0 0
427 48 2 -0.55 8.117258250505136 8.965710016563884 16.665629284770716 0 -1 0
177 20 2 -0.55 9.14827355660882 6.664701186703907 16.963946431888335 1 1 0
288 32 2 -0.55 8.450656979992482 5.803375619345976 12.855424664132673 1 1 0
539 60 2 -0.55 8.239969120137186 3.4172715784576235 11.732904185100818 1 0 0
213 24 2 -0.55 8.448400334016883 9.117425552725408 11.847198044261408 -1 -1 1
548 61 2 -0.55 8.416313644389785 10.054865873998052 14.277982271050462 0 -2 -1
576 64 2 -0.55 3.438459868067419 10.033048548333019 16.527562224411426 1 1 0
528 59 2 -0.55 3.488446890064965 3.1538550503856304 10.852373721839145 1 0 1
126 14 2 -0.55 2.846948507018437 7.543103784527058 17.216755739184087 0 1 0
262 30 1 1.1 9.159540235207004 10.209672820250187 12.803040107121246 0 1 0
206 23 2 -0.55 3.5893044858169953 2.3333231437771143 15.170733732624107 0 0 -1
174 20 1 1.1 9.229089168895081 8.183841855637262 17.512739830071734 0 0 -1
466 52 2 -0.55 1.1111764374087003 2.2410212824557587 15.49968130293754 0 0 0
180 20 2 -0.55 0.9350076013054672 6.748323162376988 13.6701549160195 1 -1 1
91 11 1 1.1 0.92333407159915 4.334289457314255 22.549106427677692 1 2 0
534 60 1 1.1 7.419241623807157 2.174272541473766 11.023882195790323 1 1 0
34 4 2 -0.55 1.1751179489299792 11.682017458295078 14.584479613152983 1 -2 0
329 37 2 -0.55 6.192643016931818 18.012029367877215 11.977089818516362 -1 -2 1
531 59 2 -0.55 8.394834312878476 17.217596086103782 11.06653177085431 0 -2 0
111 13 1 1.1 6.794143165366726 18.24522209717703 16.24527237710983 1 0 -1
415 47 1 1.1 3.3445623594757112 15.415879438024051 14.033161229864893 0 1 0
211 24 2 -0.55 4.384010233822396 11.344913591546776 14.279794086738468 2 0 1
130 15 2 -0.55 2.254449418132636 16.674630555388084 14.186480376695211 0 0 0
527 59 2 -0.55 4.262463271131349 15.197630578423427 15.333330614219939 0 1 1
408 46 1 1.1 5.688656935928671 15.54892315935745 15.854204309425542 -1 1 0
351 39 2 -0.55 6.383645402669855 12.526477409865661 13.440047225071588 0 -1 -1
68 8 2 -0.55 5.799650827772172 15.663283870763843 17.43248666187084 0 -1 -1
502 56 2 -0.55 2.3617321591773894 14.094611209700416 14.076347050513855 1 -2 0
458 51 2 -0.55 5.200605828439825 11.873483738975054 16.9851598300688 0 -1 0
543 61 1 1.1 5.294251269240002 11.445450110417934 12.953266606378033 0 -1 0
567 63 2 -0.55 6.125046081894302 17.07019829153235 15.471504536980497 1 -1 0
544 61 2 -0.55 2.081481195890232 13.135381068571247 16.614800981114993 0 0 0
268 30 2 -0.55 4.467921672973208 11.805259259266537 11.507032126659011 0 2 0
254 29 1 1.1 4.715538383146272 10.773092074553992 15.841759491921485 -1 -1 -1
504 56 2 -0.55 4.402877850103547 15.96972942634519 12.873885842878508 0 0 -1
484 54 2 -0.55 6.772132934282607 14.52660576766343 15.240087549338675 0 1 -1
192 22 1 1.1 2.243002377502647 18.273068117496233 14.36757246261472 0 -1 -1
525 59 1 1.1 7.39028375151133 13.198422741289662 14.519179177722979 0 -1 0
212 24 2 -0.55 7.702078646202702 12.274667211356517 15.813763521858691 1 1 0
283 32 2 -0.55 9.666183728969965 13.486222767168794 16.92213605961978 1 0 0
575 64 2 -0.55 8.86860226201444 13.460933523506835 13.880167027997766 0 -1 0
363 41 1 1.1 8.931293393211126 12.048810525467276 16.838100097185517 0 1 -1
437 49 2 -0.55 9.09982343931622 11.663637260054784 12.123081469877508 1 -1 0
73 9 1 1.1 9.562295919061548 13.22603156879965 12.45995130438683 0 -1 -1
455 51 2 -0.55 9.736989472020666 16.305804991200112 13.239961283875274 1 0 1
96 11 2 -0.55 7.933373690747747 18.081293446644384 17.278038722608294 2 -1 -1
38 5 1 1.1 8.62561105744314 15.904738185299024 12.113476424162576 -1 -2 0
198 22 2 -0.55 10.086930839485982 11.12184140453375 16.251684148634947 -1 -1 -1
5 1 2 -0.55 7.0880665369193725 15.726143363833177 12.623599047693721 0 0 0
361 41 1 1.1 1.4598451042401808 13.227868404443491 15.081538435960853 1 1 0
128 15 1 1.1 5.706214201006928 16.46784839331127 12.031985065813032 -1 0 -1
369 41 2 -0.55 9.03294647752453 14.459409385876157 11.535753553989448 0 1 -1
117 13 2 -0.55 5.449381829137524 16.011625458436644 10.520865911030324 0 -1 -1
250 28 2 -0.55 3.028497730369161 15.426010790584783 22.27794203247829 1 0 0
228 26 1 1.1 4.849297341542913 15.409375554778752 18.747903843307604 1 -1 0
479 54 1 1.1 4.357554181582765 7.19983508127857 17.570961344586646 0 1 -1
565 63 2 -0.55 3.855816654442767 3.4219073107415094 17.71161125742923 1 0 0
421 47 2 -0.55 4.838090846519555 8.524854426509233 24.024720930164413 0 -1 -1
381 43 1 1.1 5.635455323465622 8.757978113047043 19.90190074639219 0 0 -1
340 38 2 -0.55 3.0981752115603713 7.178526389731291 22.519275487164407 0 -1 0
451 51 1 1.1 6.265476268167774 4.90859950115535 22.90699056890028 0 0 0
233 26 2 -0.55 1.9425651766551097 5.090491888806828 18.687234525357155 1 0 -1
234 26 2 -0.55 5.044493263848432 3.7952014377677723 22.703359831542752 0 1 -1
399 45 1 1.1 1.6499161848257768 7.291142647801097 21.86144767050771 0 -1 0
147 17 1 1.1 4.637456402354228 7.724834698635297 22.620373069027544 -1 0 -1
549 61 2 -0.55 4.4288864594229995 5.859144723996487 18.399251198333218 0 1 1
37 5 1 1.1 3.7487471944876 3.3266642702107725 21.906580314732004 0 0 0
292 33 2 -0.55 2.461911779380683 3.9205300571400614 22.766612668308216 0 0 0
78 9 2 -0.55 3.7473966809020385 4.024468142354324 20.375814347704427 -1 1 -1
227 26 1 1.1 3.470379533228852 4.539243006002526 18.882743854916068 1 0 0
142 16 2 -0.55 4.875149877063453 8.671374253505238 21.333354638079243 0 0 -1
69 8 2 -0.55 4.764018652896684 8.44917660749339 18.54378537784701 1 1 -1
414 46 2 -0.55 5.602128734953599 6.40007901796099 22.706081342840786 0 0 0
564 63 2 -0.55 1.7262927011787117 7.8854306343681095 20.3975988730577 0 0 0
1 1 1 1.1 1.3534547568161666 9.304498360762706 19.862684635969106 0 0 -1
302 34 2 -0.55 1.4008945115256435 9.474152925949676 18.21563971105302 0 -1 0
159 18 2 -0.55 7.188846906024247 4.614590195260854 21.659728643709684 0 0 -1
411 46 2 -0.55 6.693791085866662 7.549074436281667 19.991259466249815 1 1 1
546 61 2 -0.55 6.9900532040411125 4.766207971170101 24.295359182572593 0 1 0
530 59 2 -0.55 8.365599969719707 9.74322282796289 22.719974672422293 0 -1 0
103 12 2 -0.55 7.860687928572043 3.245419810666315 19.3858430266139 0 0 0
374 42 2 -0.55 8.960754401867804 8.165818028616453 19.032376275992032 1 2 0
10 2 1 1.1 8.261310574603506 7.205924609841377 20.07056957040762 -1 0 -1
209 24 1 1.1 8.243281196937387 4.322754932307684 20.4679598296079 1 0 -1
108 12 2 -0.55 8.59105359061756 7.405104644793776 21.616714881852907 0 0 -1
524 59 1 1.1 9.09554157577232 8.307597445223127 22.84879375123958 0 1 0
157 18 2 -0.55 9.523221414643595 3.922394404943659 21.221084686923703 -1 1 0
501 56 2 -0.55 8.562308858794513 5.693471673586811 19.66272353455162 1 0 0
270 30 2 -0.55 8.671251170091498 7.587033136078037 24.28331673893218 -1 -1 -1
194 22 2 -0.55 6.655428897212568 10.099714545268691 19.660126396822903 0 1 -1
266 30 2 -0.55 10.136807050428443 3.3081424375190385 23.73965370628503 -1 1 0
273 31 1 1.1 8.42790151779867 18.215620979025786 18.805821492013774 0 0 0
364 41 2 -0.55 2.7932512303100716 12.915580847998708 21.662234393449655 0 0 0
541 61 1 1.1 8.200063916251379 11.364585289599844 22.605580207489854 0 -1 -1
196 22 2 -0.55 5.7008414639670235 15.507081828560263 20.100945697203006 0 -2 -1
320 36 2 -0.55 4.8167831656746545 13.604062668109284 23.169978811589875 1 -1 -1
74 9 1 1.1 2.040014044838697 16.45013547463574 18.946170643535492 0 -2 -1
464 52 2 -0.55 4.333908379983535 13.935899218881392 18.578856147269818 0 -2 0
343 39 1 1.1 2.8100679091564347 11.896697235306817 20.331690667562025 0 0 0
417 47 1 1.1 5.0651480621422875 12.505874530777598 18.50361259278402 1 0 -1
447 50 2 -0.55 10.056364320103219 2.1110767198656113 18.688314962316724 0 0 0
300 34 1 1.1 3.246024160912876 13.993237861759491 22.875144934329786 1 -2 0
332 37 2 -0.55 4.201285935044654 11.695602463410891 19.599829218560554 0 1 1
410 46 2 -0.55 1.5729158531797405 17.783245561842005 18.10143861993931 0 1 0
468 52 2 -0.55 6.765647889498402 11.877901798941872 23.064872343310363 0 -2 0
456 51 2 -0.55 1.6844666600071545 16.777205971475475 20.481374574709726 -1 -2 0
317 36 1 1.1 6.497060993795723 16.738249806828534 20.66508794116719 0 -3 -1
185 21 2 -0.55 2.5599728986172483 13.987959998159221 24.442448976904256 1 -1 0
97 11 2 -0.55 3.458170700872417 18.12026554298254 21.88123998867544 0 -1 0
496 56 1 1.1 1.3014932139103996 13.491416381143663 18.01015328510619 1 -2 1
570 64 1 1.1 6.9811335648693635 15.9241212081891 23.78705415859845 0 -1 0
313 35 2 -0.55 3.660695980614296 16.446585437049418 18.755418156353585 -1 -1 -1
153 17 2 -0.55 7.165957791633242 14.32495804006656 23.80891061658389 0 -1 0
406 46 1 1.1 6.135471555587604 13.079685372058323 23.894050601500172 0 1 0
346 39 2 -0.55 1.3906401267907778 17.26374913469934 23.20233049714029 1 0 0
348 39 2 -0.55 2.3554295069512046 10.38819308487338 20.4794249926831 0 0 0
277 31 2 -0.55 6.679490521183232 16.412203907309777 22.27919870236231 -1 0 -1
41 5 2 -0.55 7.871227546568394 17.03219865118383 19.75539356729681 0 -1 0
312 35 2 -0.55 5.7821550985704295 18.11751451942257 20.337715092137678 -1 -1 0
224 25 2 -0.55 8.254847840822507 16.70557790426041 24.367717816057276 -1 1 -1
173 20 1 1.1 7.563109192287904 11.414380193675486 19.517172558978704 0 -1 -2
121 14 2 -0.55 6.550056364145811 12.705143730594713 19.124117191705718 0 -1 0
135 15 2 -0.55 8.562782154636947 11.42160612998373 18.278430798300178 -1 0 0
438 49 2 -0.55 8.340258508120614 11.641834002870851 20.951181743436603 -1 1 1
558 62 2 -0.55 9.355864994500815 11.915458570928601 23.641360024663847 0 0 0
319 36 2 -0.55 1.7789095534663513 12.609467870026771 19.227976989275007 0 -1 0
149 17 2 -0.55 1.4360037090488462 15.10721880933292 18.250763245870118 -1 -1 0
560 63 1 1.1 2.395510184970932 16.923012711589447 21.95056220690319 0 1 0
353 40 1 1.1 10.115744796139868 5.716827729178573 16.20641556283713 0 0 0
338 38 2 -0.55 0.9539399496447541 5.802973115270095 21.86564073561267 0 0 0
171 19 2 -0.55 12.015900307216082 2.6792246848027137 -0.8176543629739812 0 -1 -1
533 60 1 1.1 10.767373266011717 5.807872396867018 -1.9617784899427348 0 1 0
315 35 2 -0.55 10.83383514722668 8.011797918437985 0.7442953090471527 0 -1 0
281 32 1 1.1 12.453644992994594 8.312934715507177 0.8986420727632837 0 0 1
195 22 2 -0.55 12.339100823402328 5.874335451851629 -2.0651051606969517 -1 1 1
316 36 1 1.1 12.341682361006614 2.7101824530873624 0.7889688729598278 1 1 1
26 3 2 -0.55 13.128100909386413 9.267216902291596 -0.2374961362366781 0 0 1
256 29 2 -0.55 13.0028005050811 6.811705236205581 0.737894971228402 0 1 1
428 48 2 -0.55 11.911640050722658 2.797584025817212 -3.39421667438461 0 0 0
401 45 2 -0.55 12.889418813648426 4.167974762707991 1.194165755331014 0 0 1
322 36 2 -0.55 15.744097936823644 9.53790816280709 -0.691756067998493 -1 0 1
516 58 1 1.1 13.872644576243802 6.198406318863622 -2.40380970052789 -1 0 0
403 45 2 -0.55 14.366986094005641 7.670709241071905 -1.7829866797338028 -2 1 0
63 7 2 -0.55 16.135040330761267 3.1988082206062978 -0.6341133467727288 1 0 -1
48 6 1 1.1 13.46732036968834 5.56476423389374 1.7190105040381718 -1 0 0
189 21 2 -0.55 18.77402647445716 7.309100625665454 -3.5410374408683385 -1 0 -1
83 10 1 1.1 18.817201195608767 8.184976077069189 -2.2536008672102446 -2 1 0
102 12 1 1.1 18.68651812026846 4.2072551401045395 0.7235464800230075 0 1 -1
551 62 1 1.1 17.04219117493388 8.806041230432587 0.10715557732790135 -1 0 1
378 42 2 -0.55 17.909624461781817 7.941107070078176 -1.0509903543835593 -2 0 1
513 57 2 -0.55 16.7164164262409 3.682166878163345 -3.1492855789968117 0 0 0
214 24 2 -0.55 17.57298028560323 5.345221933956031 0.864336187582613 0 0 0
217 25 1 1.1 15.5059865563309 3.6058199389567394 -2.0465465001031906 -1 0 0
297 33 2 -0.55 14.861425228074161 5.082070712597577 -1.8190547526860958 -1 -1 1
344 39 1 1.1 14.282685058988092 9.230362342216544 -1.3301389878247734 0 0 0
449 50 2 -0.55 16.408409069121717 7.640011794768452 1.0415254034673562 -1 -2 0
245 28 1 1.1 16.473202238900885 6.189160590419399 1.6888961492640253 0 0 0
43 5 2 -0.55 14.299942019006414 2.539587406225435 -2.285903061483035 -1 0 -1
286 32 2 -0.55 18.1357859784894 2.657026156059505 0.8396979907880175 -1 0 0
86 10 2 -0.55 15.062282104998644 5.390662578320401 1.6128782701195565 -1 0 0
477 53 2 -0.55 17.852638387704843 9.829643950708007 0.9274664032678834 0 0 0
25 3 2 -0.55 11.083410740034832 2.5209802552232365 1.8146801965044341 0 1 0
301 34 2 -0.55 12.704067402369398 8.779689888967667 2.4043631424952614 -1 1 -1
553 62 2 -0.55 15.962234018153246 2.574175927956634 1.9780865848485054 -2 1 0
154 18 1 1.1 16.599668062098484 2.239970383403413 0.5136389041753668 -2 -1 0
11 2 1 1.1 10.387904348285433 3.246315299699885 -3.6212136248439672 0 1 -1
517 58 2 -0.55 14.28190869859844 10.234031511729402 -2.730993482550477 -1 0 1
124 14 2 -0.55 19.501498250781225 9.620381827673135 -2.371106092470784 -1 1 0
56 7 1 1.1 12.748669736341512 2.1449470372255246 -2.2188358951436378 -1 -1 0
509 57 2 -0.55 10.61705451012708 17.684208199767877 4.1401121898963895 -1 -2 1
497 56 1 1.1 13.612589045472426 17.19665451228878 6.635193427199891 1 1 0
39 5 1 1.1 16.757841401428994 5.648392632002993 10.099675001079635 -1 1 -1
423 47 2 -0.55 18.86186341862048 13.56974032322241 -3.675543885469757 -1 -1 -1
118 14 1 1.1 11.283405370331304 12.820965978949094 -1.8065031162709344 0 -1 0
445 50 2 -0.55 11.897504356465594 14.267814932617846 -1.9591369424198812 -1 -2 0
182 21 1 1.1 12.416916029611583 11.851950013484071 0.8027819431228217 -1 -1 1
400 45 2 -0.55 12.319990134870357 11.973181981965958 -0.8560512174956549 0 0 1
148 17 2 -0.55 10.954549399374205 11.951571999552538 -3.0854042627072142 -1 -2 1
249 28 2 -0.55 12.48282271631625 16.91490076025127 -2.0485125604601686 0 0 1
495 55 2 -0.55 11.09910601332103 11.006945382985284 1.237211550329879 0 0 -1
109 13 1 1.1 13.006524526319375 15.467876637978975 -1.6231891052446876 -1 1 0
426 48 1 1.1 13.265185497592974 16.164496960160818 1.4082418502852216 0 -1 0
139 16 2 -0.55 13.264474719324204 17.779761114073487 1.0992284933782104 -1 0 -1
311 35 2 -0.55 13.346990686241883 15.449428197365698 -0.010553758266783569 0 -1 1
107 12 2 -0.55 15.114514621555655 12.698967407104963 -2.409851386880286 0 0 0
140 16 2 -0.55 16.410683414623364 14.425805491110184 -0.82492355367427 0 0 0
432 48 2 -0.55 16.467234280294544 17.096955007365167 -0.022761469676120652 0 0 0
559 63 1 1.1 17.10355843773359 15.610440517792062 0.08865452923500165 -1 0 1
321 36 2 -0.55 18.583907634971805 15.728137462616004 -0.4224974795130413 -1 -1 1
30 4 1 1.1 14.971954284139109 11.507077619143306 -3.4256789991138796 1 0 1
219 25 1 1.1 15.602470679776856 14.219476110136833 -2.268791971923743 0 0 0
360 40 2 -0.55 14.380824094029172 15.195049964423141 -2.2936387642644465 0 -1 0
162 18 2 -0.55 17.00943823060841 15.159867709661096 1.6617205474194237 -1 -1 0
512 57 2 -0.55 12.035414744866314 13.367927286492721 1.2496821250662566 -1 1 1
35 4 2 -0.55 16.5210927876026 14.666006131216449 -3.4697569776798742 1 -1 -1
15 2 2 -0.55 13.734353668070222 11.570037029581542 1.698240745971875 1 0 -1
122 14 2 -0.55 11.888976362155221 15.726366455102287 2.1834043626927997 -1 0 -1
65 8 1 1.1 10.991180256673415 14.392675301194792 1.9785362533588413 0 0 0
176 20 2 -0.55 14.587469465091736 15.737693424788851 2.3539491004749893 1 0 -1
201 23 1 1.1 15.87955689572615 14.753577704934683 2.7900440064091354 -1 -1 1
151 17 2 -0.55 15.535356206154566 13.223830950423205 2.6619897693210706 -2 1 1
470 53 1 1.1 14.58764716084425 11.882272329811572 3.0240448536972484 1 -1 1
158 18 2 -0.55 16.454601112773528 11.350225179584678 -4.0923167272423 -1 0 1
58 7 2 -0.55 16.62070481868095 10.471364471365627 6.039815483672378 -1 -1 0
327 37 1 1.1 17.97954871311785 8.657667057059252 9.761866333383619 -1 1 0
260 29 2 -0.55 15.322581391397952 3.385513055632431 4.401826001450278 -2 2 1
385 43 2 -0.55 12.989952804629654 5.881147835712839 3.1964170651313673 0 0 0
13 2 2 -0.55 12.751575337340707 2.786869446541164 3.9446530272552858 -1 0 0
425 48 1 1.1 11.247296702627605 2.6193734429566886 3.4074185717555476 -1 1 1
156 18 1 1.1 11.312401495469768 7.494167463830175 6.945706946578302 -1 0 0
150 17 2 -0.55 12.004233808075513 6.845123751932165 5.625290416998171 -1 -1 0
116 13 2 -0.55 12.448558788593287 8.40234520750884 7.702935952433313 0 0 -1
542 61 1 1.1 19.25339488366825 3.867003895422487 3.545178029884977 0 0 1
328 37 2 -0.55 16.80995117107727 6.514208050385193 5.945758170330765 -1 1 1
164 19 1 1.1 13.394485481409458 6.304327015617807 4.78752503255141 0 0 1
72 8 2 -0.55 16.930160511385104 8.584338524744851 4.259096929325741 1 0 -1
141 16 2 -0.55 17.796769649507862 3.400629620129124 3.7353912506934552 0 -1 0
472 53 2 -0.55 16.838210970286063 6.295313107059544 3.2581617122017525 0 0 1
284 32 2 -0.55 13.508103492001947 4.8454564756134 5.5080637475992855 0 -1 1
172 20 1 1.1 16.32675383698492 7.131647657420421 4.519783945552085 0 -1 0
435 49 1 1.1 16.40567230706285 2.6760424537847456 3.513500063917179 -1 0 1
271 31 1 1.1 18.884607165865585 3.6796339527049753 9.171988506655415 0 1 1
489 55 1 1.1 13.841043755728087 3.3629648081881567 5.066189689184501 1 1 0
231 26 2 -0.55 14.715670757191178 7.174469134703077 4.682996912926595 -1 1 0
33 4 2 -0.55 14.871802118756834 9.425423965033609 7.58519647828006 0 1 1
429 48 2 -0.55 17.41572362193063 9.46644421060876 8.440518651017813 0 1 1
163 19 1 1.1 13.322775268450252 9.787251440389888 7.641907325190595 -1 0 1
572 64 2 -0.55 17.458829870301702 4.369611686250553 9.606767949983485 0 1 1
193 22 2 -0.55 17.400845559130396 7.0862740529721355 9.789702744508867 0 -1 0
552 62 1 1.1 16.26072913248777 10.220316157814015 7.618372584699375 -1 0 2
307 35 1 1.1 16.866578591237626 10.185709880066467 4.418755350997169 -1 0 0