LAMMPS data file via write_data, version 8 Feb 2023, timestep = 29000

576 atoms
2 atom types

-12.096052663329955 32.68163037492735 xlo xhi
2.2892292261551663 18.296348485437512 ylo yhi
1.3771306603378424 19.208447051256254 zlo zhi

Masses

1 28.0855
2 15.999

Atoms # full

404 45 2 -0.9289039000873974 -7.00056623697331 6.969556979176225 4.871932736125106 6 -3 4
61 7 2 -1.000526378288978 -7.351168431076375 5.178142822409821 8.10471654054745 -6 4 -1
332 37 2 -0.9112621602620293 -7.540336900263319 2.6035936061508638 2.423144876414322 -2 0 -2
120 14 1 1.865966526632932 -7.541274854688023 2.980911786991967 3.9666510769180685 -4 5 -5
260 29 2 -1.000376262725441 -9.606778117052366 6.421323640700741 8.006176211396614 -1 -1 2
137 16 1 1.933233872565259 -8.927861136899603 4.9575861147497715 8.01747206698444 2 2 -1
4 1 2 -0.9644021582701608 -9.498161735895064 4.158954934066514 6.7556007236958955 1 -2 5
36 4 2 -0.9302285530157394 -9.49474491780483 4.1583912068574636 9.347557978954692 3 2 2
126 14 2 -0.8836627765002504 -9.026928031057372 3.687882878458023 4.131486264458768 -4 6 4
425 48 1 1.815308513245807 -10.112605816538718 3.952730520289668 5.3101729114552105 -5 3 -1
242 27 2 -0.9277801095486666 -10.60786875168071 6.328572533652619 2.655274556086126 -3 0 3
268 30 2 -0.8729832413874787 -10.932545063530249 5.321305829188282 4.93550385496503 5 2 4
16 2 2 -0.8812749102156532 -11.190347697679165 2.7208665855736007 5.387361760096686 0 7 -2
146 17 1 1.702220517520398 -11.624562783158716 6.42598748047845 3.9141547888439705 3 1 -7
424 48 1 1.72067310024737 -11.50382012571599 2.8048873712514153 1.6008830194448453 -3 -8 -1
214 24 2 -0.9888429646680931 -11.78005561532945 7.258108793667014 9.00757511795728 8 -1 6
58 7 2 -0.9028463772540999 8.741999079376072 17.301792095566967 7.641534813548577 2 1 1
536 60 2 -0.9345885140675209 -6.613993156284388 4.266981044462025 4.424983156928653 1 4 2
315 35 2 -0.8970313349724764 -4.579695470054917 5.959258542112043 4.242447600708166 9 -2 0
290 33 1 1.896588291277606 -6.0256273100884545 5.642440210249356 4.966460252193047 0 2 -1
402 45 2 -1.054236159118574 -4.886425083928525 4.314870755659818 8.78477243383263 4 4 -3
488 55 1 2.093920992309499 -5.729065459256189 5.343003456328672 8.004436632207089 1 1 -1
124 14 2 -0.9939975760206653 -5.498466779424734 5.28757826411538 6.421742098036904 -3 -3 2
419 47 2 -1.003927903933813 -5.371971792783272 6.827173879803758 8.437501237784987 -8 -1 -1
366 41 2 -0.9487981410866168 -3.05660952508725 4.143428701586904 5.277851435382796 -1 2 3
75 9 1 1.889848550573699 -3.069285691211911 5.620521091719849 4.7850042571858 -2 -3 3
46 6 1 1.944400244077541 -3.649747027521699 3.370072262550664 9.005929001302375 0 -2 4
60 7 2 -0.8747161016256056 -3.73216033288226 2.7439084536568608 3.23765761818862 5 -1 -4
352 40 1 1.774655379446555 -3.032395500052953 2.6082114488123915 4.707201286954 -1 -9 6
300 34 1 1.85939676249079 -2.9789224755014967 3.2899032621149757 1.8671446525079047 6 -2 -6
360 40 2 -1.016000880594257 -1.9475716123985471 5.791705048022711 3.6637008005114304 1 -2 0
175 20 2 -0.8771242865028982 -2.5922814847661537 6.669382210930359 5.95824393966261 3 -4 -4
220 25 2 -0.8990754152260363 -2.254351271054998 4.188854040468985 8.7001454732149 -6 -3 4
123 14 2 -0.9451192137941766 -1.4960541851953495 3.9395818746454703 2.0957003136690036 1 -2 2
249 28 2 -0.9470725718832035 -1.5365919834682755 18.25408165369029 4.292775688979165 2 -1 -4
401 45 2 -0.9379258370460538 -2.038995651203254 7.47637246113253 9.604849209173524 -2 -1 -6
21 3 1 1.913461141206258 4.567901175982183 5.065597797567969 1.4455331172886736 -1 0 -3
170 19 2 -0.8672592682703757 9.919623090817202 6.839592458945385 6.942168269490296 -5 -7 -3
408 46 1 2.020148844882105 -0.8572878806254551 5.272153988589978 2.64255246510233 -1 2 5
201 23 1 1.858898752395688 -0.6342821414689408 3.9032034136832063 8.500912936874562 -2 3 2
484 54 2 -0.9306195761391455 -0.36110742863905276 3.104971461647124 7.10978607753832 -4 1 6
40 5 2 -1.015849746934889 -0.1507815356911528 3.136291184908243 9.790891176848225 4 -1 6
553 62 2 -0.977214252984175 1.8924347036309475 6.538807442055008 6.869662756203703 -1 5 0
498 56 1 1.928707034131312 1.471575721115689 7.286339917087372 5.500591662651092 2 5 4
476 53 2 -0.9439888750172373 0.16044316293815272 5.330067121905136 8.2743527188988 1 7 0
411 46 2 -0.9064555254292468 -0.11174997820109606 7.065221951032206 5.223645359448588 6 -8 -7
278 31 2 -1.066452147417997 1.5529432758090544 7.119080725903524 9.434582122823207 1 7 4
239 27 2 -0.9018803807974913 0.6591063481721153 5.035099065219555 3.2207200444889583 4 5 6
236 27 1 2.096929979699087 1.5560796533112828 6.044367126280592 8.309638970699822 2 1 -1
256 29 2 -0.8864311159217314 2.3527454743338105 6.628725587913839 4.34839961808565 2 -1 -3
173 20 1 1.850844865249211 2.268483664800629 5.189779001984579 3.544393336230063 5 -7 3
422 47 2 -0.9607897132434267 2.6529452525056634 4.935611721486369 8.650961735702474 0 -1 -2
550 62 1 2.033738126329939 3.3098660729576697 4.034008285693439 9.829737735989976 -5 1 -9
227 26 1 1.853946336101779 4.129597854606748 3.182301233122865 5.124141771047258 1 2 0
493 55 2 -0.8813601594805185 2.8341870199385277 3.9853871940325765 4.499504468825915 -4 1 1
373 42 2 -0.9666482185086682 3.1636597505637054 5.185474675532144 2.211135021590896 -3 3 0
27 3 2 -0.9725671725181467 2.864578939129375 2.5082851370568497 9.525403420574177 6 11 0
273 31 1 2.087020265173891 5.953321385714989 5.272147271442803 6.500531058498807 -2 -8 6
558 62 2 -1.008615466383037 4.915866152820222 4.186675857763212 9.823112928827616 3 2 -4
131 15 2 -0.9415660838579845 4.7940066172463505 4.267866965318246 6.190583194520121 4 4 1
107 12 2 -0.9443866880804387 5.4648269892493575 6.792566750920124 6.548011240182794 -1 -1 -2
381 43 1 1.962949186450046 6.452060130961634 4.377945909545073 9.461555302827975 -2 -1 -5
13 2 2 -0.9836717547857367 6.472869451615661 4.98184691551621 7.991541692887153 -1 -4 -2
186 21 2 -0.962462504058515 5.373777490792146 2.762873905470847 4.170901430907254 -7 -1 -4
216 24 2 -0.9477123936779738 7.289305787954644 2.9775863921128956 9.292154167900552 -6 7 -7
112 13 2 -0.9789474879117369 8.251342461131003 7.213836752724316 8.891331005285547 -7 5 -7
464 52 2 -0.9155787582023033 5.77025807023458 5.778836725649265 2.209794488383736 -5 2 3
320 36 2 -0.922570413972908 7.95365540354251 3.435407264474753 3.9375872224797397 -8 -1 -5
5 1 2 -1.053052506225789 7.1108759660241585 5.1757649701320325 5.490177807452937 4 9 -1
284 32 2 -0.8795241718021959 8.327616001547703 5.680603819058458 1.8602709629773635 1 0 -1
370 42 1 1.835430909304297 8.45575657460432 4.696557789353205 4.830667496545759 4 0 5
497 56 1 1.824377842670527 7.082955203960395 6.673221457528256 1.7519313444108884 -1 3 3
162 18 2 -0.9041901036347407 9.374127148536711 5.749953723565568 4.073775955640891 1 0 -5
570 64 1 1.503857224080996 9.806023883363553 5.873475490310582 2.5129435649034 -6 -4 0
171 19 2 -0.8253030666148752 9.501918775032117 4.007311541906869 5.886365225223752 3 -2 3
418 47 2 -0.9169578771954403 9.851386060916322 2.825792006564345 9.495476751293744 -5 2 1
154 18 1 1.66150691860626 1.296488538463233 17.27743896641814 1.4528521023188596 0 4 2
481 54 2 -0.8934455764242849 -2.8054218475727137 15.188420169513828 10.121151027769898 0 4 2
430 48 2 -0.9038967376710713 -10.252878376693221 12.658972009449238 1.390347038060105 -2 1 5
110 13 1 2.013320390844055 -10.505424282544716 7.691751213894259 8.214735370199254 2 3 -5
436 49 2 -0.9056637618986126 -10.82250133834479 8.38185955532435 6.824898221400165 -2 -3 11
330 37 2 -0.8783557033473659 -7.002864007530511 9.721600481927625 4.131812232489575 -2 2 -7
196 22 2 -0.9054036756370938 -6.684091191904532 12.122968197624486 8.061960406736512 4 6 -1
344 39 1 1.72988309273631 -6.817147619453878 11.148617913042226 3.342791135808689 1 0 3
159 18 2 -0.9459442437884218 -7.291631321569506 8.240331339014034 9.565361173224163 2 2 -14
507 57 1 1.849058049241558 -7.698216544486316 8.211129895371503 4.078450276181277 -3 -5 6
198 22 2 -0.9859786431599905 -7.685901995605608 7.847688162468056 2.5183193279455995 6 -3 0
203 23 2 -0.8876708334375197 -9.251123898304888 12.054410333012513 8.811852201421159 4 -4 2
557 62 2 -0.8989396748554392 -8.290281974671226 11.598672612148349 2.7768117445344074 0 -1 3
302 34 2 -0.9730821535370103 -9.638178131129122 8.848618801880788 8.944215449293177 -2 -3 5
347 39 2 -0.9381726085957443 -8.725961358574667 12.381038201043367 6.269506284497423 4 -4 -5
374 42 2 -0.938495748632147 -9.123473131634281 8.469469687784361 4.812359507384316 -2 0 -6
443 50 1 1.490056756830467 -10.108016368415106 12.0355236360973 5.600882625020672 4 3 2
354 40 1 1.809332829374221 -10.569176260323081 8.98304552080593 5.32055258814854 0 4 -1
485 54 2 -0.9090532658347998 -10.700059020376528 10.59115362715828 5.3565589658481265 -1 -1 -2
574 64 2 -0.8225754340685894 -11.627522720393303 7.91452629159842 4.542485667065294 2 -1 0
221 25 2 -0.9159418249834715 -6.1125198439112856 12.438936412310476 4.1075614286795945 0 -3 1
210 24 1 1.963268856699634 -5.725402517764592 8.230776456412219 9.115071978296024 1 -1 -5
306 34 2 -0.9126304407529615 -5.485638694611822 9.431214534425385 8.054379653755074 -2 0 0
386 43 2 -0.9922347255299508 -4.381466077763504 11.499827405806615 7.054938686378089 4 -1 -4
224 25 2 -0.9006203369826554 -5.786814050166094 10.771558906487417 2.1176670533834256 0 -1 0
3 1 1 1.931589369387481 -5.254720415300887 12.712436482631421 7.614384020047874 5 -7 -4
380 43 1 1.973635904665267 -4.1588509803398335 9.982050788239231 7.254014468752675 2 -5 -1
231 26 2 -0.9927053435890334 -3.9212743273173465 9.394491423252381 5.790297838296077 2 1 6
470 53 1 1.82984052587289 -1.4096794541669968 7.805555943916458 5.890176469532144 -4 4 1
377 42 2 -0.9695971952746885 -3.6920768323753297 8.87626429128553 3.2017350566860983 -4 5 -6
118 14 1 1.898915543213944 -3.118218229647819 9.670288454785231 4.4221117667155045 4 -2 -1
364 41 2 -0.9680515389015125 -2.984506014486167 9.579944917117569 8.286144329727518 -5 -5 -1
144 16 2 -0.9452939605817563 -2.9674009992956263 11.174700806563841 3.960242713252211 1 1 6
474 53 2 -0.9281468273228051 -1.6637331144242784 9.006668124544781 4.83228524650161 2 -5 -1
38 5 1 1.931587065340478 -1.680339051495652 8.73833767783596 8.723214593262762 -2 8 -4
156 18 1 1.841310234625801 -2.131458444299077 12.174196836383786 2.940770553983718 1 4 -5
199 23 1 1.931412738812422 -3.464900388203371 8.450177231590665 1.6625466093069754 -2 -2 -1
314 35 2 -0.9958193452860905 -1.0888310751395285 8.127447928866202 7.344951922752436 6 1 7
168 19 2 -0.9648304367285417 -0.6658529848619195 9.610376981032905 9.616546679731526 2 4 0
70 8 2 -0.9857176013477773 -0.7221943607033294 12.493635041209991 3.6498662565575 5 -2 8
228 26 1 1.917797249472898 1.5918535247099583 9.760382192792356 2.1394725143013478 5 -1 7
324 36 2 -0.9007645217172311 0.4830321179058242 8.61801724194765 2.328794193039907 2 -1 0
180 20 2 -0.9420134220278047 1.926171438032608 8.816470329873159 5.564917803552728 7 -1 5
163 19 1 1.8755257826763 2.2034452425907087 10.324757718436787 5.058440564960758 1 -1 0
439 49 2 -0.9459709998481697 2.3821730314112854 10.267935864822949 3.478865302448262 -7 1 1
438 49 2 -1.081142993800301 1.037263506887671 11.30822751121971 5.356175349173636 4 -4 -2
14 2 2 -0.9244234670530738 0.6266907181755056 12.031582118773791 8.401400078793392 -3 1 2
506 57 1 1.964234064446173 0.1752419207219152 12.553755240520147 4.958317187913763 -2 -2 0
65 8 1 1.852435181397072 2.1776759801089 11.780005952240042 8.612552729788474 4 -4 -6
26 3 2 -0.9362219800194752 2.5237262748006364 12.45631307858044 10.041323487408958 -1 3 -5
111 13 1 1.702746085862066 4.328705125296033 9.719846557763589 8.776748408093281 0 -3 5
420 47 2 -0.9227390456813676 3.742125963159065 8.528562074622641 9.757891999838519 -1 -4 2
517 58 2 -0.9147827208001572 2.872405631225286 10.342700293828665 8.289686200719299 -4 -4 2
526 59 2 -0.80202628131008 3.68680459529365 10.97096688011111 5.6543153989864035 4 -7 2
453 51 1 1.640856884300507 3.856946213311226 12.49034768268215 6.23079528183152 -6 0 3
410 46 2 -0.9088759823037588 2.8729780078908407 12.760786085898062 7.555741480038821 4 -3 3
80 9 2 -0.9915444109340289 9.728596545791712 16.196254709447253 2.4624928908891244 -7 1 4
348 39 2 -0.9410225472718792 6.800088353859132 12.913729472398465 10.212882446062824 -4 1 3
91 11 1 1.938668319608746 8.887935400349528 7.893900533923255 7.6517319139957705 7 3 5
446 50 2 -0.975301700780581 7.242188309656815 7.849288258492751 2.7855081138081745 0 -1 3
311 35 2 -0.9158182300188455 5.801259645484656 8.664971840224736 4.8089353027555966 0 -6 0
289 33 1 1.981098230407618 6.316560237525596 9.051722685671487 3.340743971271311 2 -4 -1
57 7 1 1.912453964429087 6.027224191922312 8.282412095609457 6.389651675118358 3 5 -1
35 4 2 -0.9568352601147831 5.191978925775564 9.157334521393242 2.2320438694865747 5 4 2
501 56 2 -0.8908953378911435 5.296259161855635 9.130860768203204 7.524486176181025 -5 7 1
277 31 2 -0.99874732549988 5.237111173473302 10.983917601616483 9.239574998685478 -2 2 -6
496 56 1 2.005179887201194 6.706205495826875 11.409294914031818 9.72151540690052 -4 0 -4
477 53 2 -0.972227297337026 7.06438156250714 10.50462605911424 3.431478676107988 2 8 3
527 59 2 -1.004832049950587 7.854232700695486 11.172057431817077 8.672902737085467 -4 -1 0
382 43 2 -0.951552187420576 7.630208827991494 8.192345737420762 6.638622690935767 -5 5 -5
327 37 1 1.917688936782219 7.831174553221663 11.879671341852825 3.386426859731655 1 0 6
384 43 2 -0.922167190774586 8.681850324491586 12.11554827509305 4.744067229244769 7 -1 2
441 49 2 -0.9033509382225248 8.785419751250359 11.69895963178923 2.095237502393486 -1 0 -3
426 48 1 1.976987475835327 9.404395766851458 10.795807185826026 8.410858149981399 0 -6 6
45 5 2 -0.9779640656775117 9.59018071562509 9.239596079080709 8.115069022830447 -2 -3 -5
303 34 2 -0.9247537521291856 9.976757483774465 11.408143673146833 7.051228501183667 6 -1 4
533 60 1 1.861972213319403 10.005862251733545 12.295254400562055 5.677871029620043 10 -7 3
165 19 1 1.830495437435405 -8.198139612711051 12.682595581249085 7.768388088116466 2 -1 3
257 29 2 -0.9583891789121685 -11.116934628818258 18.114360258693495 2.9759229056085035 -8 -1 -2
390 44 1 1.753778028219543 -11.82190132247774 17.635856286957832 4.33931025941722 6 0 -1
275 31 2 -0.8764340026520976 -11.589299739292255 16.12041890232238 4.777809125396915 0 3 1
93 11 1 1.714399892645184 -11.03021779172012 14.021647270848849 1.7259444292889654 -1 0 -1
182 21 1 1.760951993846644 -10.522857769783807 14.875476181292036 4.593089906243249 -4 -2 3
122 14 2 -0.9532764502696042 -10.42945666168371 14.699826112995584 2.997590457034351 -4 -1 0
301 34 2 -1.009496208545298 -8.179594610513396 14.23643378038925 8.077061274920169 -2 -2 1
86 10 2 -0.9260568105852999 -6.685553248663867 14.89142703502786 4.4290658098094084 -7 8 2
33 4 2 -0.9044260634918547 -9.37896124267248 16.499348475909148 8.489102733131686 1 -3 -12
116 13 2 -0.9615645375530237 -6.988305328821372 16.159547622641057 9.487055975431357 2 0 6
197 22 2 -0.9309242890652948 -7.575697432381841 17.576132844892292 4.783023980801178 2 -1 6
271 31 1 1.884378200787393 -7.927499792440296 15.778281235266965 8.234491667445685 5 -2 -4
192 22 1 1.864834782434118 -7.602395274924446 15.991361981538356 5.223635501565839 2 3 2
76 9 2 -0.8902783340736479 -7.246642120003529 16.14099361366669 6.804860240992884 4 4 -4
494 55 2 -0.9458073507996906 -9.080376331616065 15.39143801486823 5.107963659824237 -1 -4 -5
92 11 1 1.389964295494873 -10.63924821704231 16.379728171644757 9.427666523513714 0 -2 0
490 55 2 -0.8158048641426281 -10.963153396861332 13.358896479015359 5.209018190833547 4 -8 0
77 9 2 -0.4787287309067464 -11.806166500717588 15.438880520746444 8.95558437684889 -3 -7 -9
250 28 2 -0.9229670293652503 -4.428754991637235 13.395836414348093 8.782627093500427 -3 -2 5
29 4 1 1.985446219744119 -5.587660310742467 13.786596249334787 4.821766085930328 -4 4 -2
140 16 2 -0.9888016510113594 -5.72737223670012 13.656082537555978 6.399663189423751 -4 1 6
575 64 2 -0.9761611883429455 -4.208848223031162 14.418920031245118 4.462486203082166 4 4 -5
212 24 2 -0.9817805545002261 -3.716834649536897 18.05180022195065 8.124891284095403 -3 -2 -6
94 11 2 -0.9311807707670314 -4.18991755991907 15.847334826377107 2.2582833041874397 6 1 0
189 21 2 -0.9762416968029499 -3.5668279542524264 17.43140729641712 5.645066460798645 -2 1 0
274 31 2 -0.9360673736529854 -3.4759318694541257 15.474729055523778 7.5937237816305 11 2 1
307 35 1 1.859143445861004 -3.2876453888135213 14.927759938135864 3.255723490539043 0 0 -2
299 34 1 1.963390761176959 -3.138784794349299 16.948451648953796 7.097501842838607 3 -1 2
350 39 2 -0.919037947586142 -2.963828144686369 13.537618759412593 2.6023826681879147 -6 1 4
53 6 2 -0.8888671917363428 -1.8797242154834468 15.647546281063251 3.824262490839174 -1 -4 -2
190 22 1 1.837873417961957 -3.16325633182021 14.391233067078165 8.77285148712187 5 1 -3
391 44 2 -0.8736898395826181 -1.80709773416129 13.445943606516362 8.584279057215136 -3 3 -7
554 62 2 -1.013218991654768 -1.5516111775785528 16.938511894132816 7.1712851831949544 3 -7 -2
576 64 2 -0.9522316992032215 -6.674563230512004 16.32044615031989 1.4215196197375863 -2 4 -3
211 24 2 -0.9428918567158896 -0.7079876126773771 12.851381494135559 6.279453190343848 3 1 2
208 24 1 1.748390290545433 -0.7720941499761044 16.881402715502176 4.017776602538479 2 2 2
413 46 2 -0.9120475606733226 3.006148401897747 15.779318733644876 4.5839244643648085 3 2 1
523 59 1 1.916516442824903 -0.1383016150748615 17.538828947729122 6.824678133056268 -2 -2 -2
106 12 2 -0.8896515746064827 0.1636841341280374 16.88042307429709 5.418613153776535 -2 8 -4
226 26 1 1.981847056135812 1.6489006581686334 15.602187029870308 8.242298089385121 3 2 0
166 19 2 -0.9557320199676256 0.4873001786721248 14.470412951117028 8.06779519384287 4 -5 3
442 50 1 1.88753749430604 -0.38493965100136446 13.157507040652975 7.8293713750856275 0 -1 -3
365 41 2 -0.9566776204111228 0.8160545720232287 16.922146671658297 7.959814898988518 1 0 -4
448 50 2 -0.822781675966193 0.22331357445769912 17.02560482911668 2.7496424564986985 -2 -12 6
414 46 2 -0.9690949129102235 1.037839549188769 13.887540852679141 4.756243140592799 8 1 -1
71 8 2 -0.9445600121192708 2.2789872816018657 15.85890842364732 9.726098052492404 7 -2 -6
449 50 2 -0.8631372634524319 2.3598111753062505 13.952545400073792 2.5251028183317317 -5 2 -2
335 38 1 1.8146012512941 2.445181153807807 14.286978988522343 4.162431132438239 2 7 0
176 20 2 -1.010831082687208 2.723657898373795 15.671471845472627 7.108223623213563 5 -2 -5
336 38 1 1.899130980725994 3.626298727319162 16.336032972482815 5.964649588299517 -1 -5 -3
421 47 2 -0.9368180220324281 3.5695331738734666 17.938438422152274 5.936459923437991 -1 -3 3
73 9 1 1.394173007225928 4.262343927750975 16.25373588601558 1.7485905219728024 -7 1 2
499 56 2 -0.8160609781681358 2.924855071078914 17.210061948008907 1.9583349206203067 3 -8 1
337 38 2 -0.8842428195133458 3.509802234122984 13.315814284894426 4.8592217756840235 -6 1 -1
50 6 2 -0.9794067785816026 -0.6461185030819868 6.287271430947064 1.4420949649767674 2 2 -6
460 52 1 1.960064284659556 6.425747898488605 14.198106720739844 1.975684650690081 5 0 -3
12 2 1 1.762958403570781 7.97892224889433 16.53320543860556 6.40758106487971 -2 2 1
471 53 1 1.837968762129192 6.896432139602736 18.231476780362946 4.26648524802028 1 0 -3
403 45 2 -1.000848993940946 7.3813681856540985 16.910633022066 3.498882207117425 -2 -2 -5
67 8 2 -0.8658231700372253 9.148710492451984 15.947975183568502 5.303998208283128 -3 -3 -5
34 4 2 -0.9458481320396811 5.492578623603011 14.563926477893741 8.735881704925557 -5 4 -5
252 28 2 -0.9420048125056706 5.0748614786582555 15.747422812769901 6.261734820762736 3 -6 -1
11 2 1 1.735781825066992 5.777122344883945 14.553074105514817 7.153141610704246 3 7 -3
167 19 2 -0.8170624186638661 7.358635741125494 15.08638259730125 6.817632673192343 -4 3 1
482 54 2 -0.9550361192642169 7.515461047408526 15.307586775195707 1.556018496457081 9 6 3
456 51 2 -0.9236125019584656 7.097460630511577 17.745253307235384 5.755157235166875 -4 -3 3
431 48 2 -0.8493038015904227 5.351375153416302 13.092833689368314 6.641088433185175 -2 -6 7
491 55 2 -0.9277074309572111 6.9731371601002525 13.276357389701865 3.162452477759269 -6 1 0
540 60 2 -0.8597728492868646 5.11650856136744 14.985306577805618 2.4090130540750754 -1 9 13
473 53 2 -0.9344554429493583 8.439918543398068 16.679432074553016 9.939531830454895 -2 -2 1
375 42 2 -0.9705151526303313 -3.91464642698491 4.489555395789265 1.4337835675723292 3 9 3
372 42 1 1.977974174156931 8.570443415754719 18.00812791884494 9.05542843164355 5 5 -2
200 23 1 2.020401215328904 8.222402981197757 16.582345867996146 2.222860647681374 0 3 -2
500 56 2 -0.9004752850335196 -2.0498631353259293 11.567140535355568 1.435581650583692 4 -7 -3
542 61 1 1.955935536833579 -8.585468752388666 8.989397200896642 10.135068654849348 0 -1 -1
151 17 2 -0.8950774920634896 -1.847042872839813 8.548999026443958 1.5432071060344312 1 -7 -3
187 21 2 -0.9442019886935039 -6.2907313868313475 6.0030458948031935 1.389012564339506 0 1 4
416 47 1 1.941002427739211 5.806973966107607 14.209151989181464 10.28681431530173 -1 3 -9
100 12 1 1.969489694888632 -6.6789386658680625 5.313471809595241 12.368738030597582 -2 6 -2
396 44 2 -0.9968245532907545 -7.540496041797531 5.363418408634445 13.740970272863848 -1 -7 8
552 62 1 1.918801331129172 -7.198930035226924 2.8687924054401557 16.154465169184686 -4 0 7
160 18 2 -1.026846114730342 -7.650550842338977 7.030465465430307 15.685975724438148 -6 -1 0
229 26 2 -0.8795862467563206 -7.86173113407464 5.1038491219829805 11.217484263130947 -3 5 0
371 42 1 1.944708238051541 -8.081273319571613 5.59019064961443 15.24080193980084 -2 -3 3
142 16 2 -0.9361147520859402 -7.4593721703651 4.44440947796765 16.205714230184416 -1 7 -6
267 30 2 -1.033567218382897 -9.279519586074521 2.849497170889171 11.680650165795843 -10 2 3
538 60 2 -0.8881139072345156 -8.782926803682505 6.200694888171873 18.551937976163984 2 7 10
292 33 2 -0.8734194836276981 -9.72485075665308 5.498047198622347 15.261788450774178 4 6 -3
262 30 1 1.781249707433444 -9.219749212290052 4.256606875139234 10.934763691126452 2 0 -1
310 35 2 -0.8740766182301237 -10.416030919474949 5.226345889407031 11.497663485432657 -4 -2 3
37 5 1 1.678474398390773 -10.999813694257437 6.341782320131411 14.609107101046241 0 8 -4
356 40 2 -0.9139661068582802 -11.459011604641486 6.384596652278933 18.05967860442203 -3 2 -6
472 53 2 -1.018769761329902 -6.947377419098295 2.309845062228863 17.60903960978417 -7 3 -3
15 2 2 -0.9485386623894851 -8.493128271907192 18.235371350894294 15.33972393640775 -5 -1 4
128 15 1 1.864209996669372 7.954683807721646 16.21320691790885 11.360711941026935 -5 1 7
503 56 2 -0.9611976359764427 7.2580679076064625 5.463891675092173 10.393996690814197 -7 -4 -2
313 35 2 -0.7504379265292581 -11.989834934154585 5.261990374883664 13.68795985501798 2 -3 -3
204 23 2 -0.8600766061493587 -11.970461955015468 7.10891041865179 15.682687754979383 -1 -6 -5
181 21 1 1.682763079404573 10.236626321399296 7.523238122240726 12.457835929361966 -4 0 -4
321 36 2 -0.9945706036318468 -5.748528270050853 4.112308378064457 12.034906274289227 4 0 2
455 51 2 -0.9512198345648439 -5.901502877411147 2.60933631306518 15.212405754332865 8 6 1
288 32 2 -0.9581784737432592 -4.79115764163197 5.480982862814864 17.145046493692224 -5 4 -4
328 37 2 -1.025828698665001 -5.989798874543944 6.717164311119674 12.072872470675076 6 3 -6
264 30 1 1.844985247805243 -4.758575549155979 2.7863972047397128 11.826460810894542 -3 -6 -1
524 59 1 1.932628239874166 -4.804974908159426 5.717668219435349 18.72741717949691 1 -10 2
281 32 1 1.895371862298425 -4.355990080088529 2.829576457690728 14.823949969558168 3 6 -2
269 30 2 -0.969820369214852 -4.105842118287448 6.927761649125149 15.092796911552377 4 7 -3
287 32 2 -0.9520986763140202 -4.106251186494525 4.403892565007291 14.876907289128962 1 2 -10
322 36 2 -0.8832421277159684 -4.002942577334129 2.493378022126258 13.280878367234767 5 -10 4
83 10 1 1.885159780688602 -3.741925129972111 5.5855360611151745 15.87833872438461 -3 -2 -1
521 58 2 -0.887229514815846 -3.709754932597922 2.973157190555538 10.57340761367844 4 1 5
195 22 2 -0.919982579628247 -3.3153316704421685 6.91989231509317 11.828444504433238 -6 -5 -3
95 11 2 -0.9228694518682895 -2.1690241038390083 5.510816162703142 16.2971385478579 11 4 -9
345 39 1 1.812578951381132 -1.7997891413258715 7.061749048380196 11.158056436917173 -2 5 -3
230 26 2 -0.9388851745230802 -1.0061413889163284 5.664474807293093 11.417089025755958 0 -1 3
152 17 2 -0.9254105045256514 -1.1895007086936271 5.147516640031498 13.915069223283744 0 -3 0
397 45 1 1.912492182613942 -0.8395036921657476 5.048771455083611 15.528079679789633 5 -2 3
202 23 2 -0.9698058601333555 -2.937580350259221 18.08020846638102 18.650579184866114 3 4 3
510 57 2 -0.438390789760881 -12.094549743624732 13.204379865126278 15.80319695872254 -4 -2 -2
502 56 2 -0.9238771589916939 7.887977148946386 17.561004886715345 12.236616779303366 0 2 1
409 46 2 -0.9067436321614416 -0.4052918225669968 3.6573144624414633 16.245411497633548 4 5 3
516 58 1 1.889126340762459 -0.33295160419525005 4.834634051569569 12.620255524836717 -6 0 0
463 52 2 -0.9952480005888654 -0.3874727308538295 3.2830499123840315 12.321064343344656 -1 -4 -2
139 16 2 -0.9647679014115341 1.206827162877558 5.324504980472705 13.006729533216982 0 -3 2
512 57 2 -0.9914727420813643 0.1947584187517667 6.227215073510393 15.765932391668482 0 -2 -5
291 33 1 1.93392855733061 0.8025591420198682 2.60599382049767 16.507330668703823 0 -2 0
206 23 2 -0.9132933848343366 2.023977737371195 3.4198873793809685 15.911157905480666 -4 -5 2
248 28 2 -0.9584617178084817 2.2670423367371693 7.192468016953308 17.05353185917162 -2 2 3
309 35 1 1.991766564184374 -0.1597884404726346 18.289465547927925 11.136520612350852 -5 -1 -1
318 36 1 2.108672222632054 2.5786530761678046 5.663602464916701 12.278480817818494 0 6 2
367 41 2 -1.012257019468608 2.5931493399994316 7.140947708160306 11.82011106666951 0 -4 1
88 10 2 -1.128335412232286 2.666289911738962 4.6425292603974695 11.07367435950084 3 -3 -4
359 40 2 -0.9079416669830943 4.410339376131069 5.9160165832789025 17.90466249040912 7 -9 0
183 21 1 1.945079857463546 3.847694349825176 7.170668679478663 16.953788579157273 2 -4 8
447 50 2 -1.04455775130386 3.8034141784933655 5.403692609555989 13.215748716265441 -1 0 -2
215 24 2 -0.9866376947668374 4.529797760478391 4.250384242827908 15.357784652561495 -3 9 5
30 4 1 1.71281834807443 3.5021968451861856 3.0080285709501977 15.345963466609142 1 -4 3
266 30 2 -0.9729614915849082 4.297047592424573 6.773414315753907 15.476700540182996 1 6 -8
388 44 1 2.003184173050107 0.8053963051280935 7.527794106746549 16.3386536180328 2 6 -3
559 63 1 1.898770641843916 2.376029537451272 8.020439462172941 10.473213858142515 7 -2 1
164 19 1 1.979081120765073 7.81933960802762 6.925507013753069 10.463589726612177 -8 7 -1
475 53 2 -0.9293541773764321 9.623926251419045 7.310024092751354 17.261437263088776 3 0 -3
399 45 1 2.004411508183872 4.72452773898366 5.578885518027548 14.506056138732756 -6 -2 3
9 1 2 -0.9523464150013854 6.266305052906609 5.672846894464377 14.155174421463753 10 -1 8
545 61 2 -0.9517191937718927 5.024264107407867 3.62362926695425 18.804352533327965 2 -3 2
445 50 2 -0.8789725744120608 6.857368725348507 2.5053883860423003 17.0709024495598 2 4 1
519 58 2 -0.9466554626284274 7.603828166080157 3.2362423634410704 14.318080116794604 -5 1 -3
469 53 1 1.818086400731947 7.631426774260726 4.856707850898054 14.471295981329584 3 6 -2
483 54 2 -0.9214147915066818 7.075948210426275 6.992856267345024 17.972991762332846 0 0 2
148 17 2 -0.8705161539725137 8.08271788886947 5.550620863335202 15.89786765350662 -1 -3 3
556 62 2 -0.9062097583786832 8.963567264536383 5.246689827284796 13.583067522393508 -2 8 8
246 28 1 1.89379183400391 8.145253718982461 6.9375643206138236 16.74725217652555 2 6 -2
259 29 2 -0.9431086536369189 9.158109604724547 7.055236799658708 11.306265962003934 0 5 -3
429 48 2 -0.808339099798084 9.4321866520484 3.5282468271596565 17.648392287342272 0 3 -2
343 39 1 1.638893814563213 5.454981762145103 2.4384311849612055 17.847113240759498 -3 -2 -1
294 33 2 -0.9273273512840813 7.740327208329515 8.023625553403923 15.69245370130036 -10 -8 -9
48 6 1 1.748156446497156 -10.298879018941614 5.772793637699575 19.021929048436824 -1 7 0
64 8 1 1.628677537252771 -7.489623630893391 7.0478554382732685 19.04925228862482 6 -5 -8
258 29 2 -0.9179203958477136 6.834345469218252 16.648955967780797 14.470895087432687 -6 3 -1
505 57 1 1.254826346172909 -11.874019325640889 5.018906641729481 12.081500263814023 -2 6 3
81 9 2 -0.9475172816146716 -10.342569820563458 7.388711711718483 13.596248671592667 2 -3 3
74 9 1 1.789940479060973 -11.926620441086918 7.625554308898922 17.20257814194175 -6 -6 -6
515 58 1 1.689233258851907 -11.215696832920266 11.335845361157716 12.591811351664377 3 -4 7
276 31 2 -0.9262418001285362 -10.541102772997045 11.20887012460664 16.080229244013154 -3 -1 9
78 9 2 -0.9060581179776475 -10.497355715573853 11.70946910877037 11.182446543758491 1 -7 -1
213 24 2 -0.9213110001503039 -9.114584523783831 10.726020685497067 18.131230924077318 0 -6 2
338 38 2 -0.9221360959316399 -6.941110095126925 8.614341953464015 17.79872134725392 -1 -1 -2
316 36 1 1.85981194511873 -7.253557689621512 8.450847328576428 16.207311319007704 5 -4 -1
566 63 2 -0.9775934517060205 -8.345466090905262 10.523411582179179 10.415330606969487 2 0 0
119 14 1 1.820600283297038 -9.08513113089779 11.90947190029286 10.475718910942962 5 4 0
51 6 2 -0.9731315352047388 -9.343727685502236 8.277707090057229 11.370059894081146 0 0 -1
108 12 2 -0.9536774056590569 -8.574606071699828 9.393095343525294 16.0023449568393 4 0 3
39 5 1 1.86673177336765 -9.790239006029555 10.0133856621027 16.8171083328806 -3 -1 5