LAMMPS data file via write_data, version 2 Aug 2023, timestep = 1000000, units = real

1491 atoms
5 atom types
686 bonds
1 bond types
343 angles
1 angle types

-12.120000000000001 12.120000000000001 xlo xhi
-12.120000000000001 12.120000000000001 ylo yhi
-28.28 28.28 zlo zhi

Masses

1 15.9994
2 1.008
3 28.99
4 35.453
5 26.9815

Pair Coeffs # lj/cut/tip4p/long

1 0.185199 3.1589
2 0 0
3 0.0469 2.4299
4 0.15 4.0447
5 11.697 2.574

Bond Coeffs # harmonic

1 0 0.9572

Angle Coeffs # harmonic

1 0 104.52

Atoms # full

478 16 1 -1.1128 -8.723469583727207 -10.063839147793933 -6.786948255441031 0 0 0
86 0 5 0 -10.87258895404259 -9.964843139978681 -9.067698595141382 0 0 0
484 18 1 -1.1128 -6.632552178539428 -7.950027066936876 -6.452697908731449 0 0 0
451 7 1 -1.1128 -10.772582372863596 -7.777569628245133 -6.666119418518909 1 0 0
544 38 1 -1.1128 -8.667469700552681 -6.051288868159174 -6.477058957826902 0 0 0
545 38 2 0.5564 -8.190927045726795 -5.250057201673634 -6.259853382738508 0 0 0
453 7 2 0.5564 -9.991355922547065 -7.232836626187879 -6.57015853796313 1 0 0
480 16 2 0.5564 -8.172978755764207 -9.30025782449232 -6.960596299650804 0 0 0
485 18 2 0.5564 -6.089084286222445 -7.164651322551485 -6.516549440768726 0 0 0
479 16 2 0.5564 -8.999987616479853 -9.958311638354987 -5.876659876262518 0 0 0
546 38 2 0.5564 -8.014181024230444 -6.746872598548665 -6.401992415363012 0 0 0
486 18 2 0.5564 -6.010118545102754 -8.676262662883664 -6.490246658105948 0 0 0
1153 241 1 -1.1128 -6.668663048314319 -4.133658011884426 -6.356878047104634 0 0 0
1045 205 1 -1.1128 -10.674421956661254 -3.751556751900327 -6.5735525029430075 0 0 0
1154 241 2 0.5564 -6.134575935175836 -3.342350665924206 -6.287383359405915 0 0 0
1155 241 2 0.5564 -6.13470774114393 -4.739158402328542 -6.87118438317832 0 0 0
1047 205 2 0.5564 -11.38142002505825 -3.1151567857465023 -6.466991179920823 0 0 0
1046 205 2 0.5564 -10.081716245724003 -3.347894865749337 -7.207593609417978 0 0 0
291 0 5 0 -8.857179439161337 -3.981379803788617 -9.003474472149398 0 0 0
100 0 5 0 -6.85524294641745 -5.9364857066228005 -9.041842701882782 0 0 0
99 0 5 0 -8.849029629371103 -7.92584669856117 -8.976066147226232 0 0 0
88 0 5 0 -6.846348212862674 -10.04245230325618 -9.06675258494781 0 0 0
98 0 5 0 -10.907496137708788 -6.0214174066033115 -9.098988092599484 0 0 0
55 0 5 0 -6.803590656966336 -8.007124801587112 -11.017439116294513 0 0 0
56 0 5 0 -8.838420441155744 -5.943600329026637 -11.069959607440017 0 0 0
219 0 5 0 -10.789575161095467 -3.9766236218817768 -11.063241240035172 0 0 0
223 0 5 0 -6.82521689669976 -3.9295732107388175 -10.993585780221153 0 0 0
32 0 5 0 -8.902260181537368 -9.910590997550774 -11.022004934478836 0 0 0
51 0 5 0 -10.868530410753353 -7.946967998282336 -11.193951810894898 0 0 0
30 0 5 0 -6.806595556907523 -9.881880935418435 -13.036586360039898 0 0 0
222 0 5 0 -6.777171144679413 -1.8180085966647983 -13.040394582555107 0 0 0
218 0 5 0 -10.841642537796716 -1.9080936945364522 -13.096783639176914 0 0 0
292 0 5 0 -6.7804589490425204 -1.990265791275784 -8.915111115288406 0 0 0
221 0 5 0 -8.830655405894673 -3.9614945640887242 -13.150785383730456 0 0 0
224 0 5 0 -8.744759565312728 -1.9115083997274958 -10.986058417943227 0 0 0
290 0 5 0 -10.798746827477412 -1.9176907615417684 -9.061424949723191 0 0 0
50 0 5 0 -10.861233452264232 -5.930290491738966 -13.114686655642913 0 0 0
54 0 5 0 -6.6991756143289045 -5.836778396694616 -13.031409500764543 0 0 0
53 0 5 0 -8.89541275484981 -7.870948560137043 -13.17955120081342 0 0 0
26 0 5 0 -10.80599190289304 -9.97525418462929 -13.107521426871097 0 0 0
36 0 5 0 -4.878502111730575 -9.972810595645923 -11.033598959207104 0 0 0
481 17 1 -1.1128 -5.004532689509868 -9.99402818291679 -6.490962789311207 0 0 0
547 39 1 -1.1128 -4.583297280676965 -5.947814984510637 -6.382548540453161 0 0 0
101 0 5 0 -4.815448562400788 -7.96384353650422 -8.996798932319948 0 0 0
60 0 5 0 -4.77821851164187 -5.932921548515438 -11.046331138796996 0 0 0
225 0 5 0 -4.8456548575561476 -3.8445695834106073 -13.054432916086553 0 0 0
57 0 5 0 -4.748010957804218 -7.919531830140717 -13.025562689588053 0 0 0
1048 206 1 -1.1128 -8.859138161045385 -1.7720389375446457 -6.703669801380659 0 0 0
964 178 1 -1.1128 -4.945779269381311 -2.0635006552414543 -6.441877284848089 0 0 0
228 0 5 0 -4.799332667912119 -1.921919010580643 -10.97741404185706 0 0 0
293 0 5 0 -4.886650981784329 -3.969139293126262 -8.960269905775204 0 0 0
1050 206 2 0.5564 -8.543187907775017 -1.9747522427070419 -5.823142967519142 0 0 0
1049 206 2 0.5564 -8.124678595457342 -1.988818590393193 -7.277977587573417 0 0 0
452 7 2 0.5564 -10.529536574653955 -8.432536994625792 -7.320477897467232 1 0 0
859 143 1 -1.1128 -9.207877139876333 -7.171802097683616 -3.798901990532859 7 0 0
636 68 2 0.5564 -4.4572015365887685 -3.367558441391661 -4.1175032580128414 6 -1 0
861 143 2 0.5564 -9.874234646620323 -6.485812423816642 -3.758962734634588 7 0 0
860 143 2 0.5564 -8.375599100964665 -6.700159231097001 -3.7653511405266964 7 0 0
482 17 2 0.5564 -5.618137858424763 -10.726041521950979 -6.553028885769708 0 0 0
548 39 2 0.5564 -4.456224065487175 -5.556259306775593 -5.518388604361493 0 0 0
725 98 2 0.5564 -9.355547309777181 -9.340980673239494 -3.6275756860619315 6 0 0
724 98 1 -1.1128 -9.128189616226852 -10.16137523279239 -4.065167143777571 6 0 0
483 17 2 0.5564 -4.476767895802287 -10.188284586419758 -5.716378693667888 0 0 0
538 36 1 -1.1128 -7.29421177945336 -5.3212949189070695 -3.805207279862679 6 0 0
539 36 2 0.5564 -6.875205552184582 -4.678712157504028 -4.377717490296443 6 0 0
540 36 2 0.5564 -6.648570756439855 -5.487882611191467 -3.1184422327671295 6 0 0
1278 282 2 0.5564 -5.259364574941825 -1.3615359056184566 -1.9690152133297625 5 1 0
1276 282 1 -1.1128 -4.845805828880923 -1.3901395840232875 -2.8317830209656716 5 1 0
1454 341 2 0.5564 -6.168834339797341 -7.888282983860845 -4.19154602643533 5 1 0
1453 341 1 -1.1128 -5.859860072917695 -8.204804282937907 -3.3426808707121176 5 1 0
1167 245 2 0.5564 -10.518814421804842 -1.1601270454270152 -1.5262910977762238 6 0 0
47 0 5 0 9.374627768962394 -12.026703268331609 -11.08202337480471 0 0 0
1455 341 2 0.5564 -4.906087364646868 -8.14426476624895 -3.3966618152801242 5 1 0
1277 282 2 0.5564 -5.543210358903749 -1.1464437281058184 -3.4404313911161997 5 1 0
1294 288 1 -1.1128 -5.989173346662691 -6.3224928427563825 -1.4686903334080001 7 0 0
1166 245 2 0.5564 -10.356577351460182 -0.023167132772143103 -2.5126461585101687 6 0 0
1296 288 2 0.5564 -6.007924798730783 -7.164714471744723 -1.9231624581439257 7 0 0
91 0 5 0 -0.8178186203230272 -12.011610835095874 -9.008490939241529 0 0 0
937 169 1 -1.1128 -7.656555618524707 -1.0423245316749694 -4.134231633694032 6 0 0
543 37 2 0.5564 -10.213546434423668 -11.295674880229441 -7.111244068707204 0 0 0
938 169 2 0.5564 -8.266105982176361 -1.2400109751825716 -3.423188685362993 6 0 0
1424 331 2 0.5564 -10.614611272188458 -11.220420919308003 -3.9088713220732094 6 1 0
726 98 2 0.5564 -8.552291218832917 -10.61144912216226 -3.4470893917959278 6 0 0
644 71 2 0.5564 -6.371982872299893 -10.323378401649284 -3.2855514166630404 6 -1 0
897 155 2 0.5564 -10.195984528626331 -0.6368405761818666 -6.750551609466096 0 0 0
965 178 2 0.5564 -5.068917848891773 -1.3160678171000777 -7.027035976419371 0 0 0
643 71 1 -1.1128 -6.264476836661231 -11.19298533538142 -3.6708493947219774 6 -1 0
87 0 5 0 -8.83926982895912 -11.976761663196207 -9.093994589543227 0 0 0
1082 217 2 0.5564 -11.249312708254012 -8.32456429047772 -4.681676201856341 6 1 0
1158 242 2 0.5564 -8.477580610570982 -4.25571066491518 -2.457832829191408 6 0 0
715 95 1 -1.1128 -10.898236636508544 -5.179939019685412 -3.8661924340409515 6 0 0
716 95 2 0.5564 -10.512444191809852 -5.192493574939704 -4.742120305989577 6 0 0
1118 229 2 0.5564 -8.165540069960299 -9.267846737616253 -0.874624010185006 6 0 0
966 178 2 0.5564 -4.192996069311237 -2.5305969127586114 -6.80436021575162 0 0 0
1119 229 2 0.5564 -9.435779833711488 -10.010357575446116 -1.2310668313302717 6 0 0
1117 229 1 -1.1128 -8.990622827099369 -9.171396628155271 -1.3502166264838422 6 0 0
1156 242 1 -1.1128 -8.615726391148927 -3.5521988445882617 -1.8236220835994763 6 0 0
1120 230 1 -1.1128 -2.2969796678261587 -1.2585001233714515 -0.22770799076755585 7 0 0
1157 242 2 0.5564 -8.66146276571967 -3.9974231706026093 -0.9775046816421091 6 0 0
1295 288 2 0.5564 -5.441232359330373 -6.477165477638863 -0.6992138382328762 7 0 0
1281 283 2 0.5564 -10.586921705640044 -3.309959330713223 -1.440898065358806 6 1 0
963 177 2 0.5564 -11.577591802121542 -5.0913957500770195 -6.64842137207767 0 0 0
1366 312 1 -1.1128 2.3106762147493227 -0.12630808243944897 -0.7533330885439169 5 1 0
1125 231 2 0.5564 -9.078119654943505 -6.784420335662672 -0.42489253760171963 5 0 0
1280 283 2 0.5564 -11.91458181947037 -3.400725584706229 -0.7191210627543313 6 1 0
983 184 2 0.5564 11.785051120940809 -0.9445365433227771 -7.065803100643055 -1 0 0
85 0 5 0 11.366415004278354 -12.031228819481187 -9.023298657318536 -1 0 0
549 39 2 0.5564 -3.722075302859964 -6.292342038806893 -6.618894543744001 0 0 0
455 8 2 0.5564 -7.636051471223968 -11.393264133177784 -6.648239938146204 0 0 0
1145 238 2 0.5564 10.25875263497788 -11.802560291082372 -5.127401293249766 6 0 0
1218 262 2 0.5564 -2.599285853003607 -10.170180426850216 -2.0950256851310782 5 1 0
1123 231 1 -1.1128 -8.52428193574248 -6.02954981079558 -0.2257684646334151 5 0 0
939 169 2 0.5564 -7.380667287016512 -0.1405587328026383 -3.9700859294886683 6 0 0
1124 231 2 0.5564 -7.760841698632409 -6.135642455350475 -0.7933627971093347 5 0 0
1084 218 1 -1.1128 -10.061039709422001 -11.92677183340792 -0.9706537440452717 5 0 0
541 37 1 -1.1128 -10.866016849639825 -11.945562410059635 -6.850123413108 0 0 0
1010 193 2 0.5564 -7.243632773375267 -11.74896589750384 -0.9770273639387266 6 1 0
1279 283 1 -1.1128 -11.199696778397325 -2.795312525376558 -0.9156409942900451 6 1 0
608 59 2 0.5564 0.7508878279800175 -9.065721997197251 -0.7460355516418041 6 0 0
39 0 5 0 1.1739429718881413 -11.951288784551314 -11.123260878767807 0 0 0
434 1 2 0.5564 8.786238261690425 -8.485592231133214 -6.4098402069999185 -1 0 0
634 68 1 -1.1128 -4.1874692250782095 -4.284981464493702 -4.0750385544372385 6 -1 0
743 104 2 0.5564 -3.3596455559403786 -1.2623562994757558 -3.451022395257942 5 0 0
742 104 1 -1.1128 -2.57979388457551 -1.193614815962944 -4.001756137211186 5 0 0
27 0 5 0 -10.7931744323479 -12.02888771413211 -11.113663088459816 0 0 0
1165 245 1 -1.1128 -9.96465923137404 -0.4061308500389479 -1.727812974585109 6 0 0
744 104 2 0.5564 -2.1418083427523222 -0.39801823156131716 -3.6993670763776874 5 0 0
647 72 2 0.5564 4.18557434660775 -6.4723931680957 -4.6225580504574895 5 0 0
1052 207 2 0.5564 8.631848476113825 -1.5877387080467564 -0.10212990255676134 6 0 0
849 139 2 0.5564 6.285009919456061 -5.4207457842282905 -0.9786505459031549 5 -1 0
31 0 5 0 -6.861711852156394 -11.99348297359094 -11.100455825642072 0 0 0
719 96 2 0.5564 3.9497958331618603 -9.98130942099893 -0.1113851738508662 5 0 0
1122 230 2 0.5564 -2.9410081245953847 -0.5773381496752483 -0.4212356022849122 7 0 0
635 68 2 0.5564 -3.5402855855508366 -4.3124673064560595 -3.3703048537835096 6 -1 0
1216 262 1 -1.1128 -2.1557371705802515 -9.437290150581676 -1.6679993896604952 5 1 0
1238 269 2 0.5564 5.7209427472488095 -1.9033654339274078 -0.26219371462376184 5 1 0
464 11 2 0.5564 6.129305994328783 -11.255285051540955 -6.507103626794445 0 0 0
1470 0 3 1.1 1.0591235489089195 -12.102009443667457 -0.5581255269252938 4 1 0
93 0 5 0 3.247303660132382 -11.991371723078057 -9.136892894868884 0 0 0
609 59 2 0.5564 -0.5300911341965827 -9.754148610721323 -1.1668177901025527 6 0 0
1042 204 1 -1.1128 -1.2023224274166808 -5.508029414394428 -0.4639667972224837 5 -1 0
1044 204 2 0.5564 -0.8699061568711993 -6.0893689590024165 -1.1479141458593474 5 -1 0
1217 262 2 0.5564 -2.7396736286729855 -9.187728889195242 -0.9517952299146459 5 1 0
1043 204 2 0.5564 -1.4625852431980768 -4.713462801216003 -0.9299606156398305 5 -1 0
1133 234 2 0.5564 -2.5464953699705335 -3.130896800292844 -1.290621355368202 5 0 0
1132 234 1 -1.1128 -2.2259139656259133 -3.7196019763728465 -1.9739055199253226 5 0 0
43 0 5 0 5.27756685618457 -12.016093883708137 -11.074520301790033 0 0 0
501 23 2 0.5564 3.7735673104042244 -1.423691321446853 -3.309927746158806 7 -1 0
562 44 1 -1.1128 -0.9998028817902516 -6.384713682892999 -3.419989019836781 5 0 0
1240 270 1 -1.1128 -3.228709468780276 -7.711640807898081 -3.6546636780434496 5 1 0
1332 300 2 0.5564 -3.959283602617982 -11.016081307335691 -3.9169124733601524 6 0 0
1330 300 1 -1.1128 -3.424663663251511 -10.491275637277623 -4.51271209623432 6 0 0
1137 235 2 0.5564 3.798408331478595 -3.48491562325799 -0.7422551417932468 5 1 0
1331 300 2 0.5564 -3.080791554721959 -11.122014207803007 -5.145297633772379 6 0 0
527 32 2 0.5564 -3.307564635233555 -11.369595766218147 -6.901364538555523 0 0 0
563 44 2 0.5564 -0.39047890198691615 -7.117413043989319 -3.510127261294899 5 0 0
832 134 1 -1.1128 0.2275490252163384 -9.711554467714345 -3.979023264248451 5 1 0
564 44 2 0.5564 -1.8670933393585423 -6.788292988237096 -3.453712049501248 5 0 0
1060 210 1 -1.1128 2.042487947057979 -6.848693035842846 -2.189266300805571 6 0 0
1062 210 2 0.5564 1.8196857579645576 -6.018133675215832 -2.6096903610390423 6 0 0
855 141 2 0.5564 3.4486020239662496 -4.263719584896116 -4.190742450410595 6 0 0
853 141 1 -1.1128 2.569413031246087 -4.331380817141587 -3.8183110118164665 6 0 0
854 141 2 0.5564 2.0033853910378223 -3.9019042316785435 -4.459700789733664 6 0 0
893 154 2 0.5564 2.8568805279166485 -10.312134837601914 -2.7312950086462027 5 1 0
1395 321 2 0.5564 -0.8345778201832579 -2.310556208466908 -4.462648846688015 6 0 0
1394 321 2 0.5564 -0.20180953209523758 -3.596075343229742 -3.973825118631301 6 0 0
1393 321 1 -1.1128 -0.1631933829678709 -2.64549678233937 -3.8682799084881965 6 0 0
887 152 2 0.5564 -1.501504628075182 -2.4929371446223993 -6.661983278416866 0 0 0
62 0 5 0 1.2710868659654948 -5.940699474391971 -13.133767253354131 0 0 0
294 0 5 0 -2.818514582431459 -1.9046685216358008 -8.912676381221805 0 0 0
64 0 5 0 -0.7549146452489228 -5.982499390163921 -11.041409035202975 0 0 0
59 0 5 0 -2.7818058211905914 -8.010285482016792 -10.97507605252997 0 0 0
232 0 5 0 -0.7239234884218845 -1.9452902081408947 -11.041103714182297 0 0 0
885 151 2 0.5564 -3.0821093176123098 -4.0245546946303925 -5.486097997171063 0 0 0
889 153 1 -1.1128 1.1833109883592237 -4.030541537840106 -6.345093002467171 0 0 0
883 151 1 -1.1128 -2.6945508041459516 -3.8237293443237803 -6.337974634934023 0 0 0
884 151 2 0.5564 -2.0703078038525726 -4.533090106311122 -6.490862487470794 0 0 0
1058 209 2 0.5564 1.9988678676363454 -7.45762014230688 -6.555571139595981 0 0 0
530 33 2 0.5564 -0.20858587999869765 -9.21568598248865 -6.769658588136168 0 0 0
969 179 2 0.5564 -2.044531324257737 -8.79565394300243 -6.341791824559739 0 0 0
531 33 2 0.5564 -0.5949590863387816 -9.989413544400497 -5.52709429551467 0 0 0
551 40 2 0.5564 -1.2272389618586863 -6.5549225110409015 -6.775886563530025 0 0 0
968 179 2 0.5564 -3.3351669331161466 -8.668034262304065 -7.1227236214256955 0 0 0
967 179 1 -1.1128 -2.638049006873982 -8.148338430209797 -6.72253499772917 0 0 0
529 33 1 -1.1128 -0.7914974346938768 -9.909129045509946 -6.460455451037542 0 0 0
550 40 1 -1.1128 -0.926285615088585 -5.807313116774788 -6.259427749400424 0 0 0
1059 209 2 0.5564 2.1416337795534646 -8.954533426276317 -6.730966424104144 0 0 0
1057 209 1 -1.1128 1.5391734557960313 -8.284236804706437 -6.408487100127131 0 0 0
890 153 2 0.5564 0.9738291407235762 -3.100507314505043 -6.430995873429883 0 0 0
552 40 2 0.5564 -1.0421349547169259 -6.0818023512813 -5.3497766151040285 0 0 0
295 0 5 0 -0.7797976317883217 -3.923942043777653 -9.05951767988539 0 0 0
891 153 2 0.5564 0.33848244455558973 -4.4745744221449115 -6.417936492124951 0 0 0
102 0 5 0 -2.7075364950924246 -5.971930621047149 -9.028358014151515 0 0 0
104 0 5 0 1.1852015332873556 -5.999809425521354 -8.965445919344056 0 0 0
103 0 5 0 -0.7451177185381003 -8.078789064384292 -9.029099438280195 0 0 0
90 0 5 0 -2.8628161766948437 -10.073784253721243 -9.020845950789706 0 0 0
92 0 5 0 1.2576130337906206 -9.968675682922385 -9.051564349185782 0 0 0
63 0 5 0 1.2565336977046901 -7.9226727475137935 -11.080312855808156 0 0 0
34 0 5 0 -2.8481876619653965 -10.012207436437818 -12.980162611938448 0 0 0
227 0 5 0 -2.8262949884588955 -3.9135143116797817 -10.983055767043245 0 0 0
231 0 5 0 1.3206897270164975 -3.9684648131857405 -10.948383535055987 0 0 0
40 0 5 0 -0.7704491043813506 -9.970398453122703 -11.036840839333065 0 0 0
296 0 5 0 1.2411799903579004 -1.9186522673570496 -8.980586656781181 0 0 0
886 152 1 -1.1128 -0.8751898898911923 -1.7815028609173864 -6.528555554393037 0 0 0
888 152 2 0.5564 -1.3811096827339717 -0.9839960168978711 -6.684266849593846 0 0 0
38 0 5 0 1.1595157959761366 -9.93185799363376 -13.19881277105791 0 0 0
58 0 5 0 -2.813486304765333 -5.8346638506172175 -13.008307061941107 0 0 0
230 0 5 0 1.3740486398119407 -1.9646877377712157 -13.053768496890735 0 0 0
61 0 5 0 -0.8763395693010065 -7.95189266856985 -13.08831127298828 0 0 0
226 0 5 0 -2.75202542234428 -1.7812674226210548 -13.001180145039719 0 0 0
229 0 5 0 -0.7845178932172128 -3.886832992542374 -13.093369931881094 0 0 0
65 0 5 0 3.38585677142242 -7.953531471052077 -13.110282219950841 0 0 0
297 0 5 0 3.302337829585883 -3.975961751040339 -8.947485228288684 0 0 0
233 0 5 0 3.380564538710755 -3.929672569260549 -13.010743624588928 0 0 0
236 0 5 0 3.2619932292230813 -1.9202200007835621 -10.923672173954133 0 0 0
44 0 5 0 3.2572068221608212 -9.962018684836945 -11.099774987002373 0 0 0
68 0 5 0 3.2920144483734286 -5.964395615168552 -10.936063351172765 0 0 0
472 14 1 -1.1128 3.401450085300564 -10.06659698270796 -6.425900853126176 0 0 0
105 0 5 0 3.291137006401215 -8.039437703467279 -9.044936046271811 0 0 0
490 20 1 -1.1128 3.1326307244802027 -1.7516894598500492 -6.549292186895824 0 0 0
487 19 1 -1.1128 3.335973349501487 -5.805166584045898 -6.567261372776808 0 0 0
489 19 2 0.5564 2.6008265642454815 -5.194521247615192 -6.513581123188117 0 0 0
892 154 1 -1.1128 2.980210869827975 -9.5887085481794 -3.3458459940789558 5 1 0
1061 210 2 0.5564 2.8264833656308337 -7.148026489248068 -2.649710255236777 6 0 0
834 134 2 0.5564 1.117090331966814 -9.496005969093645 -4.2592267283061815 5 1 0
833 134 2 0.5564 0.3463248248738159 -10.252352480202763 -3.1982119577261994 5 1 0
555 41 2 0.5564 1.2510157518051699 -1.6232565001772334 -3.6277474429849734 6 -1 0
474 14 2 0.5564 3.230908939440598 -9.941169837255243 -5.492406525353191 0 0 0
607 59 1 -1.1128 0.3241799376806695 -9.92224558767747 -0.7691105241952875 6 0 0
1135 235 1 -1.1128 2.939617355814194 -3.886575230999919 -0.8741887064227406 5 1 0
446 5 2 0.5564 2.006887677001706 -11.341754113319737 -6.883802897519226 0 0 0
1134 234 2 0.5564 -1.7621791106277498 -3.147532395204922 -2.585406494952747 5 0 0
553 41 1 -1.1128 2.0076702421923005 -1.1328040842340399 -3.3065969782045648 6 -1 0
696 88 2 0.5564 1.7346193509725958 -7.263396281067936 -0.4962088023676274 6 0 0
1241 270 2 0.5564 -3.000787580140313 -8.334608200701137 -2.9645864680931644 5 1 0
447 5 2 0.5564 0.5113955866026816 -11.250891907150958 -6.66667476084084 0 0 0
1136 235 2 0.5564 2.8703574585910556 -3.9989639191068496 -1.8222403715129252 5 1 0
1242 270 2 0.5564 -2.9951222355300553 -8.158642444073026 -4.4682152818762475 5 1 0
908 159 2 0.5564 0.603203503403465 -0.5206947590351079 -6.816391260411371 0 0 0
894 154 2 0.5564 3.914137034122221 -9.385580998067425 -3.293084509424808 5 1 0
89 0 5 0 -4.772779463931755 -12.026610792334251 -9.051398840147742 0 0 0
488 19 2 0.5564 4.107559962897535 -5.268356299388505 -6.386309447350971 0 0 0
473 14 2 0.5564 4.264531040060931 -10.479228336747829 -6.458851952186017 0 0 0
95 0 5 0 7.315622313830874 -11.999357493718781 -9.120740992896032 0 0 0
554 41 2 0.5564 1.894007211179681 -1.1112311388388176 -2.3564154799724095 6 -1 0
1146 238 2 0.5564 11.157460446393326 -12.082741933423605 -3.9417701847526985 6 0 0
29 0 5 0 -8.856825244450675 -11.974337062953374 -13.138489138365687 0 0 0
1272 280 2 0.5564 8.116868823851739 -7.4023965827779845 -1.2833398177679916 5 1 0
289 0 5 0 11.449371710233669 -3.884162392611575 -8.934107429067263 -1 0 0
459 9 2 0.5564 11.692970906110679 -10.66929126861688 -7.061772732220805 -1 0 0
495 21 2 0.5564 10.315754647721082 -4.796723216677571 -6.626291632169917 0 0 0
1237 269 1 -1.1128 5.595530033147226 -2.6575316216621925 -0.8381626375649949 5 1 0
1477 0 4 -1.1 5.282941845803628 -3.503971989012849 -5.250140330737605 0 0 0
445 5 1 -1.1128 1.256378577354668 -11.843287072290618 -6.565283689344507 0 0 0
717 95 2 0.5564 -11.78177102354568 -4.8361371915062215 -3.998002176700586 6 0 0
1081 217 1 -1.1128 -11.98293002808729 -8.646400851562365 -4.157766615120549 6 1 0
1228 266 1 -1.1128 10.839597474155275 -0.6431414905639949 -2.646870570913468 6 0 0
454 8 1 -1.1128 -6.9234329804021195 -11.947909049134834 -6.330828352292013 0 0 0
108 0 5 0 9.340012108315321 -5.930271874584982 -9.021132737980084 0 0 0
627 65 2 0.5564 10.698222036165909 -6.596318558128973 -5.127388980648829 5 0 0
623 64 2 0.5564 5.076001891222411 -11.809705396940204 -3.3116939162835144 4 0 0
491 20 2 0.5564 3.6376844349593656 -2.4916331918279195 -6.212163370837068 0 0 0
1144 238 1 -1.1128 10.241060226887544 -11.943738055138803 -4.180833781669086 6 0 0
492 20 2 0.5564 3.7760230041899057 -1.2107325777144742 -7.007178916864064 0 0 0
46 0 5 0 9.420456735401956 -10.006700849957108 -13.077459210729673 0 0 0
1086 218 2 0.5564 -10.935698298923318 -11.971971300055507 -0.5844722368509655 5 0 0
239 0 5 0 9.44631316988427 -3.904149156103769 -11.037726878322779 0 0 0
626 65 2 0.5564 9.992383137663483 -7.811523358005003 -4.564391631747584 5 0 0
1230 266 2 0.5564 10.108029420309109 -0.18807156567677052 -3.0639196301662657 6 0 0
52 0 5 0 11.340494267520176 -5.947327518507092 -11.09262425516439 -1 0 0
909 159 2 0.5564 2.0641067577727172 -0.4547427384253123 -6.42485263000718 0 0 0
915 161 2 0.5564 8.406442524908366 -1.0112339698924675 -6.295645994996949 0 0 0
1291 287 1 -1.1128 7.9830090525934425 -10.532525261641375 -3.851306148648521 5 2 0
48 0 5 0 7.3646853055160975 -9.958349097918065 -11.044480942394808 0 0 0
1229 266 2 0.5564 10.74450232026961 -0.4467144178855631 -1.7148819644722617 6 0 0
106 0 5 0 5.352991543123646 -5.943426494816457 -8.987507194859761 0 0 0
1293 287 2 0.5564 7.154756750265741 -11.012279659887163 -3.857878771958943 5 2 0
72 0 5 0 7.391611695767878 -5.915927847381491 -11.040280789480988 0 0 0
499 23 1 -1.1128 4.712796430583016 -1.4183387651942923 -3.1254725078117027 7 -1 0
500 23 2 0.5564 5.079248799515395 -2.066306877057664 -3.727211733908439 7 -1 0
37 0 5 0 -0.7937761471368482 -12.003277736424003 -13.121540634633837 0 0 0
646 72 1 -1.1128 4.530352527697595 -7.112266759458041 -3.999732923580191 5 0 0
1040 203 2 0.5564 6.0697849768893875 -4.670631693418947 -3.43996672915972 5 0 0
476 15 2 0.5564 7.560830569477061 -10.250490597704687 -5.511700260416508 -1 0 0
625 65 1 -1.1128 10.324288160047198 -6.947794474322266 -4.319376466253848 5 0 0
298 0 5 0 5.3021340594880115 -1.9394879563380507 -8.85961512402936 0 0 0
28 0 5 0 11.39692481767367 -10.033840144156025 -11.062418622745362 -1 0 0
1239 269 2 0.5564 5.462452868992192 -2.276973029590117 -1.7063179655730212 5 1 0
220 0 5 0 11.422170341288469 -1.9385943735151963 -11.045764887381967 -1 0 0
237 0 5 0 7.377552908910426 -3.8237216025441967 -13.095563589473308 0 0 0
67 0 5 0 5.345755617505008 -7.891565178677636 -11.047660749482517 0 0 0
831 133 2 0.5564 10.31647515496527 -10.347149552011887 -2.7782368489543314 5 0 0
961 177 1 -1.1128 11.895822204234511 -5.6443443569797065 -6.497266947894828 -1 0 0
299 0 5 0 7.445053942721081 -3.9507874154186546 -9.001749990287788 0 0 0
1305 291 2 0.5564 8.036082660558629 -3.1651404719428857 -3.225012952095583 5 1 0
107 0 5 0 7.337546564688573 -7.952274482835308 -9.064890297902569 0 0 0
1039 203 1 -1.1128 6.330412384446052 -5.445658491478036 -2.9423397343335305 5 0 0
234 0 5 0 5.248487762870046 -1.8635305206477986 -12.952748469051983 0 0 0
457 9 1 -1.1128 11.262444795087946 -9.9325303436358 -6.628089439584805 -1 0 0
493 21 1 -1.1128 9.7372157057571 -4.036435830572949 -6.685501210416234 0 0 0
66 0 5 0 5.299974892007559 -5.921700871486504 -13.047510649795626 0 0 0
1376 315 2 0.5564 -11.596475604931747 -7.730778814962026 -1.921195621722661 6 0 0
913 161 1 -1.1128 7.670935534433703 -1.6237390175474524 -6.306693113935146 0 0 0
984 184 2 0.5564 10.649451465011877 -1.456120348643502 -6.205227947355779 -1 0 0
962 177 2 0.5564 -12.058726818623684 -6.523484264327379 -6.746009935657682 0 0 0
467 12 2 0.5564 4.564024677425919 -7.897956241623863 -7.005991575880166 0 0 0
477 15 2 0.5564 6.517733847918142 -9.411101301706397 -6.2182922179197835 -1 0 0
775 115 1 -1.1128 8.38248569975409 -2.8217953214190548 -1.3309705812574466 5 0 0
235 0 5 0 5.337437877711967 -3.9143251729783586 -10.997882607399788 0 0 0
701 90 2 0.5564 5.3929172460813115 -8.384932203538115 -2.922696900184043 6 -1 0
702 90 2 0.5564 6.305984170319765 -8.725552906028014 -1.7641709116548474 6 -1 0
1462 0 3 1.1 7.554433437370044 -4.003670626071198 -6.074642966516863 0 0 0
700 90 1 -1.1128 5.552917342026202 -9.052938546266269 -2.256066866461933 6 -1 0
69 0 5 0 7.371412206782237 -7.9094613130807625 -13.009315379805482 0 0 0
776 115 2 0.5564 7.480326310876228 -2.9719529768558517 -1.0485393850423284 5 0 0
458 9 2 0.5564 11.806551248742865 -9.754356137040087 -5.860986498282686 -1 0 0
1375 315 1 -1.1128 11.946191134250075 -7.672103093456648 -1.2680941615811852 5 0 0
777 115 2 0.5564 8.7483426257921 -3.6992979069503504 -1.442233017293472 5 0 0
217 0 5 0 11.388070034552538 -3.8534008899560086 -13.06760077473345 -1 0 0
238 0 5 0 9.336951469076903 -1.8922994873869041 -12.971284993889467 0 0 0
982 184 1 -1.1128 11.485657487409997 -1.7190843639285878 -6.589691762915084 -1 0 0
468 12 2 0.5564 5.418173274276719 -7.66092301402899 -5.778742740458914 0 0 0
240 0 5 0 7.391197201291641 -1.9022114965453762 -10.932919675520687 0 0 0
71 0 5 0 9.365087801970693 -7.891618640384319 -11.160207832569466 0 0 0
470 13 2 0.5564 6.844222204324313 -6.691411262900234 -6.741032877251525 0 0 0
578 49 2 0.5564 9.55679972977588 -6.128090951474803 -2.8524232772666376 5 1 0
471 13 2 0.5564 8.356596257021545 -6.711072886890367 -6.806092993011846 0 0 0
96 0 5 0 9.303832976437642 -9.974314598691901 -9.001065951454795 0 0 0
1303 291 1 -1.1128 8.311797875462487 -3.766815471400741 -3.9165270845095628 5 1 0
466 12 1 -1.1128 5.47395922048328 -7.807934893648548 -6.722938869241746 0 0 0
433 1 1 -1.1128 9.520190540772644 -8.012853356951156 -6.802327483600427 -1 0 0
519 29 2 0.5564 8.84226606014761 -11.181267063865574 -6.983992545988836 -1 0 0
579 49 2 0.5564 9.81342256743446 -5.889739213285641 -1.3795933719786917 5 1 0
972 180 2 0.5564 11.500324670526643 -2.925081220527696 -3.9281716570444143 5 0 0
494 21 2 0.5564 10.144402685300797 -3.475900242535721 -7.345986912774172 0 0 0
1304 291 2 0.5564 9.24222838661274 -3.579410783733725 -4.0407882890332285 5 1 0
70 0 5 0 9.309486361334699 -5.881629063061813 -13.141486465769777 0 0 0
1377 315 2 0.5564 11.385067574310172 -8.426479754788048 -1.4477208576191094 5 0 0
1041 203 2 0.5564 7.286646583122763 -5.448256342449455 -2.985596597160909 5 0 0
830 133 2 0.5564 10.464398862160897 -10.4659250086349 -1.2762692718824278 5 0 0
49 0 5 0 11.371739720689417 -7.921212855512905 -13.214392897943458 -1 0 0
475 15 1 -1.1128 7.176843070180027 -10.087691877740035 -6.373264060013377 -1 0 0
914 161 2 0.5564 6.911767732770058 -1.0832195867930772 -6.525124596868683 0 0 0
1292 287 2 0.5564 8.652056305549111 -11.207160936550736 -3.9674587467108013 5 2 0
94 0 5 0 5.3033784167293625 -9.9754744274344 -9.02197559748946 0 0 0
829 133 1 -1.1128 10.268270758624519 -9.83638312796873 -1.9701354448462685 5 0 0
42 0 5 0 5.369556773958865 -9.996781277485391 -13.065377643428521 0 0 0
1083 217 2 0.5564 11.69810297425387 -7.879769916426815 -4.031069184126105 5 1 0
577 49 1 -1.1128 9.116496680054167 -5.8926770510044895 -2.0357474778187243 5 1 0
971 180 2 0.5564 10.961974247638919 -3.5445029182272485 -5.20033469575298 5 0 0
970 180 1 -1.1128 11.011726042048808 -3.6808719521339373 -4.254205555408743 5 0 0
1368 312 2 0.5564 2.963419455085776 -0.4041262279457822 -0.11068743907017217 5 1 0
1271 280 2 0.5564 8.554548692378582 -8.80190606257631 -1.6597744742018785 5 1 0
300 0 5 0 9.354973726528295 -1.8985019362086217 -8.964794117597702 0 0 0
97 0 5 0 11.333220611551576 -7.979886489530457 -9.015815101336292 -1 0 0
648 72 2 0.5564 5.184176273058521 -6.62808581766813 -3.4954151505444506 5 0 0
435 1 2 0.5564 10.21579459575468 -8.666485424542628 -6.8741148770167 -1 0 0
469 13 1 -1.1128 7.621368756153878 -6.227793725654653 -6.429085239191131 0 0 0
1270 280 1 -1.1128 7.972728870440668 -8.324022361245426 -1.068704536841977 5 1 0
33 0 5 0 -4.844499630613916 -12.093238305317758 -13.015793383413337 0 0 0
645 71 2 0.5564 -6.165862292372218 -11.777836054150605 -2.919543501804905 6 -1 0
1482 0 4 -1.1 3.258261529392397 -12.078914009998586 -1.5918651928177705 5 1 0
45 0 5 0 7.314083866291964 -11.989037636656784 -13.037781907476266 0 0 0
903 157 2 0.5564 -2.805982573032077 -0.45795254182361145 -5.854056317085755 0 0 0
456 8 2 0.5564 -6.7869471059984585 -11.668637551742178 -5.425501375912564 0 0 0
900 156 2 0.5564 -6.861490511477142 -0.45589164188727627 -5.848464830334448 0 0 0
35 0 5 0 -2.7738066998942914 -12.05396837045822 -11.052934581476714 0 0 0
1261 277 1 -1.1128 -5.901657915241525 -0.935036094755003 -0.09439844329112716 5 0 0
25 0 5 0 11.508175151946778 -12.111430043618137 -13.160207010527412 -1 0 0
517 29 1 -1.1128 9.250341222369364 -12.038741469046814 -6.863867304839639 -1 0 0
847 139 1 -1.1128 5.922763316218819 -5.860030845051943 -0.20920067142572685 5 -1 0
674 81 2 0.5564 6.631950076471958 -11.893537970361386 -1.8290608805053443 4 0 0
1425 331 2 0.5564 -10.785500853808127 -12.029833931265244 -2.6409804763274805 6 1 0
41 0 5 0 3.1613032203441467 -12.053496674663462 -12.93810678607825 0 0 0