# LAMMPS data file 
# Created using atb2lammps 
# https://github.com/simongravelle/atb2lammps

66 atoms
65 bonds
118 angles
135 dihedrals

7 atom types
6 bond types
9 angle types
3 dihedral types

-25 25 xlo xhi
-25 25 ylo yhi
-25 25 zlo zhi

Atoms

1 1 6 0.2 -13.253963 1.7777629 -1.0132725
2 1 7 -0.324 -13.70611 0.9418677 -0.8468953
3 1 4 -0.039 -12.78039 -0.095382065 -1.0959095
4 1 5 0.084 -13.368313 -1.043682 -0.97695225
5 1 5 0.084 -12.379251 -0.033738814 -2.1415246
6 1 4 -0.043 -11.633537 -0.042836215 -0.08840552
7 1 5 0.087 -11.172371 0.9803058 -0.066299364
8 1 5 0.087 -11.997347 -0.30080375 0.9402178
9 1 3 -0.275 -10.668 -0.9911568 -0.53325546
10 1 4 -0.04 -9.6486845 -1.2559216 0.41791907
11 1 5 0.089 -10.078466 -1.4316051 1.437747
12 1 5 0.089 -9.162787 -2.1972113 0.044281792
13 1 4 -0.04 -8.6361885 -0.113878906 0.45472002
14 1 5 0.088 -8.236769 0.09102895 -0.57239985
15 1 5 0.088 -9.100156 0.8231845 0.86185503
16 1 3 -0.275 -7.588714 -0.5460554 1.319405
17 1 4 -0.04 -6.535678 0.39747036 1.4482716
18 1 5 0.089 -6.927822 1.444383 1.519882
19 1 5 0.089 -6.0289774 0.11663894 2.4102473
20 1 4 -0.04 -5.561537 0.2700405 0.27960044
21 1 5 0.089 -5.1313977 -0.7640783 0.23726146
22 1 5 0.089 -6.0678544 0.49637482 -0.69563955
23 1 3 -0.275 -4.532515 1.2266455 0.5215571
24 1 4 -0.04 -3.5220954 1.2351989 -0.47561842
25 1 5 0.089 -3.9597113 1.151376 -1.5034465
26 1 5 0.089 -3.0248964 2.2352216 -0.35626787
27 1 4 -0.04 -2.518116 0.111850895 -0.22815388
28 1 5 0.089 -2.087423 0.1898745 0.8037655
29 1 5 0.089 -2.99865 -0.89453363 -0.34990776
30 1 3 -0.275 -1.4938654 0.28029293 -1.2053611
31 1 4 -0.04 -0.47600526 -0.7065372 -1.133659
32 1 5 0.089 -0.9081461 -1.7299691 -0.98920286
33 1 5 0.089 0.034695376 -0.64839345 -2.132354
34 1 4 -0.04 0.5100586 -0.37898138 -0.01490739
35 1 5 0.089 0.90087897 0.66543984 -0.12939656
36 1 5 0.089 0.02808668 -0.48211163 0.9929646
37 1 3 -0.275 1.5718447 -1.3219607 -0.14089455
38 1 4 -0.04 2.5852911 -1.1673188 0.841045
39 1 5 0.089 2.148163 -0.97588164 1.8545653
40 1 5 0.089 3.1226034 -2.1535897 0.84065676
41 1 4 -0.04 3.5415945 -0.04344938 0.4495959
42 1 5 0.089 3.9626415 -0.224493 -0.57332265
43 1 5 0.089 3.0237446 0.95174056 0.46226743
44 1 3 -0.275 4.5818434 -0.0573652 1.4243823
45 1 4 -0.04 5.577012 0.9305404 1.2031791
46 1 5 0.089 5.1233115 1.9095097 0.90209734
47 1 5 0.089 6.0844526 1.0388776 2.1991825
48 1 4 -0.04 6.5749016 0.45631826 0.14938125
49 1 5 0.089 7.023213 -0.527049 0.44726583
50 1 5 0.089 6.0833673 0.34662706 -0.85326153
51 1 3 -0.275 7.5839367 1.461452 0.08516874
52 1 4 -0.04 8.6021 1.1806344 -0.86342007
53 1 5 0.088 8.171969 0.79401535 -1.8227102
54 1 5 0.088 9.093545 2.1745033 -1.0423145
55 1 4 -0.04 9.609566 0.18758331 -0.28948146
56 1 5 0.089 10.000649 0.55133635 0.6960197
57 1 5 0.089 9.146143 -0.824459 -0.14898416
58 1 3 -0.275 10.665507 0.10508214 -1.2435774
59 1 4 -0.043 11.709789 -0.7753069 -0.85649747
60 1 5 0.087 11.306018 -1.7164657 -0.4025408
61 1 5 0.087 12.239217 -1.0155764 -1.8175645
62 1 4 -0.039 12.6648855 -0.08247142 0.1129854
63 1 5 0.084 12.142187 0.17090279 1.073615
64 1 5 0.084 13.062993 0.8616265 -0.34403834
65 1 7 -0.324 13.717822 -0.9987282 0.36095566
66 1 6 0.2 14.351402 -0.5411669 0.92547196

Bonds

1 5 1 2
2 6 2 3
3 2 3 4
4 2 3 5
5 4 3 6
6 2 6 7
7 2 6 8
8 3 6 9
9 3 9 10
10 2 10 11
11 2 10 12
12 4 10 13
13 2 13 14
14 2 13 15
15 3 13 16
16 3 16 17
17 2 17 18
18 2 17 19
19 4 17 20
20 2 20 21
21 2 20 22
22 3 20 23
23 3 23 24
24 2 24 25
25 2 24 26
26 4 24 27
27 2 27 28
28 2 27 29
29 3 27 30
30 3 30 31
31 2 31 32
32 2 31 33
33 4 31 34
34 2 34 35
35 2 34 36
36 3 34 37
37 3 37 38
38 2 38 39
39 2 38 40
40 4 38 41
41 2 41 42
42 2 41 43
43 3 41 44
44 3 44 45
45 2 45 46
46 2 45 47
47 4 45 48
48 2 48 49
49 2 48 50
50 3 48 51
51 3 51 52
52 2 52 53
53 2 52 54
54 4 52 55
55 2 55 56
56 2 55 57
57 3 55 58
58 3 58 59
59 2 59 60
60 2 59 61
61 4 59 62
62 2 62 63
63 2 62 64
64 6 62 65
65 5 65 66

Angles

1 3 1 2 3
2 9 2 3 4
3 9 2 3 5
4 4 2 3 6
5 2 4 3 5
6 6 4 3 6
7 6 5 3 6
8 6 3 6 7
9 6 3 6 8
10 4 3 6 9
11 8 7 6 8
12 2 7 6 9
13 2 8 6 9
14 3 6 9 10
15 5 9 10 11
16 5 9 10 12
17 4 9 10 13
18 8 11 10 12
19 6 11 10 13
20 6 12 10 13
21 6 10 13 14
22 6 10 13 15
23 4 10 13 16
24 8 14 13 15
25 7 14 13 16
26 7 15 13 16
27 3 13 16 17
28 6 16 17 18
29 6 16 17 19
30 4 16 17 20
31 8 18 17 19
32 6 18 17 20
33 6 19 17 20
34 6 17 20 21
35 6 17 20 22
36 4 17 20 23
37 8 21 20 22
38 7 21 20 23
39 7 22 20 23
40 3 20 23 24
41 7 23 24 25
42 7 23 24 26
43 4 23 24 27
44 8 25 24 26
45 6 25 24 27
46 6 26 24 27
47 6 24 27 28
48 6 24 27 29
49 4 24 27 30
50 8 28 27 29
51 6 28 27 30
52 6 29 27 30
53 3 27 30 31
54 7 30 31 32
55 7 30 31 33
56 4 30 31 34
57 8 32 31 33
58 6 32 31 34
59 6 33 31 34
60 6 31 34 35
61 6 31 34 36
62 4 31 34 37
63 8 35 34 36
64 7 35 34 37
65 7 36 34 37
66 3 34 37 38
67 6 37 38 39
68 6 37 38 40
69 4 37 38 41
70 8 39 38 40
71 6 39 38 41
72 6 40 38 41
73 6 38 41 42
74 6 38 41 43
75 4 38 41 44
76 8 42 41 43
77 7 42 41 44
78 7 43 41 44
79 3 41 44 45
80 7 44 45 46
81 7 44 45 47
82 4 44 45 48
83 8 46 45 47
84 6 46 45 48
85 6 47 45 48
86 6 45 48 49
87 6 45 48 50
88 4 45 48 51
89 8 49 48 50
90 6 49 48 51
91 6 50 48 51
92 3 48 51 52
93 7 51 52 53
94 7 51 52 54
95 4 51 52 55
96 8 53 52 54
97 6 53 52 55
98 6 54 52 55
99 6 52 55 56
100 6 52 55 57
101 4 52 55 58
102 8 56 55 57
103 5 56 55 58
104 5 57 55 58
105 3 55 58 59
106 2 58 59 60
107 2 58 59 61
108 4 58 59 62
109 8 60 59 61
110 6 60 59 62
111 6 61 59 62
112 6 59 62 63
113 6 59 62 64
114 4 59 62 65
115 2 63 62 64
116 9 63 62 65
117 9 64 62 65
118 3 62 65 66

Dihedrals

1 3 1 2 3 4 
2 3 1 2 3 5 
3 1 1 2 3 6 
4 3 2 3 6 7 
5 3 2 3 6 8 
6 2 2 3 6 9 
7 1 3 6 9 10 
8 3 4 3 6 7 
9 3 4 3 6 8 
10 3 4 3 6 9 
11 3 5 3 6 7 
12 3 5 3 6 8 
13 3 5 3 6 9 
14 3 6 9 10 11 
15 3 6 9 10 12 
16 1 6 9 10 13 
17 3 7 6 9 10 
18 3 8 6 9 10 
19 3 9 10 13 14 
20 3 9 10 13 15 
21 2 9 10 13 16 
22 1 10 13 16 17 
23 3 11 10 13 14 
24 3 11 10 13 15 
25 3 11 10 13 16 
26 3 12 10 13 14 
27 3 12 10 13 15 
28 3 12 10 13 16 
29 3 13 16 17 18 
30 3 13 16 17 19 
31 1 13 16 17 20 
32 3 14 13 16 17 
33 3 15 13 16 17 
34 3 16 17 20 21 
35 3 16 17 20 22 
36 2 16 17 20 23 
37 1 17 20 23 24 
38 3 18 17 20 21 
39 3 18 17 20 22 
40 3 18 17 20 23 
41 3 19 17 20 21 
42 3 19 17 20 22 
43 3 19 17 20 23 
44 3 20 23 24 25 
45 3 20 23 24 26 
46 1 20 23 24 27 
47 3 21 20 23 24 
48 3 22 20 23 24 
49 3 23 24 27 28 
50 3 23 24 27 29 
51 2 23 24 27 30 
52 1 24 27 30 31 
53 3 25 24 27 28 
54 3 25 24 27 29 
55 3 25 24 27 30 
56 3 26 24 27 28 
57 3 26 24 27 29 
58 3 26 24 27 30 
59 3 27 30 31 32 
60 3 27 30 31 33 
61 1 27 30 31 34 
62 3 28 27 30 31 
63 3 29 27 30 31 
64 3 30 31 34 35 
65 3 30 31 34 36 
66 2 30 31 34 37 
67 1 31 34 37 38 
68 3 32 31 34 35 
69 3 32 31 34 36 
70 3 32 31 34 37 
71 3 33 31 34 35 
72 3 33 31 34 36 
73 3 33 31 34 37 
74 3 34 37 38 39 
75 3 34 37 38 40 
76 1 34 37 38 41 
77 3 35 34 37 38 
78 3 36 34 37 38 
79 3 37 38 41 42 
80 3 37 38 41 43 
81 2 37 38 41 44 
82 1 38 41 44 45 
83 3 39 38 41 42 
84 3 39 38 41 43 
85 3 39 38 41 44 
86 3 40 38 41 42 
87 3 40 38 41 43 
88 3 40 38 41 44 
89 3 41 44 45 46 
90 3 41 44 45 47 
91 1 41 44 45 48 
92 3 42 41 44 45 
93 3 43 41 44 45 
94 3 44 45 48 49 
95 3 44 45 48 50 
96 2 44 45 48 51 
97 1 45 48 51 52 
98 3 46 45 48 49 
99 3 46 45 48 50 
100 3 46 45 48 51 
101 3 47 45 48 49 
102 3 47 45 48 50 
103 3 47 45 48 51 
104 3 48 51 52 53 
105 3 48 51 52 54 
106 1 48 51 52 55 
107 3 49 48 51 52 
108 3 50 48 51 52 
109 3 51 52 55 56 
110 3 51 52 55 57 
111 2 51 52 55 58 
112 1 52 55 58 59 
113 3 53 52 55 56 
114 3 53 52 55 57 
115 3 53 52 55 58 
116 3 54 52 55 56 
117 3 54 52 55 57 
118 3 54 52 55 58 
119 3 55 58 59 60 
120 3 55 58 59 61 
121 1 55 58 59 62 
122 3 56 55 58 59 
123 3 57 55 58 59 
124 3 58 59 62 63 
125 3 58 59 62 64 
126 2 58 59 62 65 
127 1 59 62 65 66 
128 3 60 59 62 63 
129 3 60 59 62 64 
130 3 60 59 62 65 
131 3 61 59 62 63 
132 3 61 59 62 64 
133 3 61 59 62 65 
134 3 63 62 65 66 
135 3 64 62 65 66 
