LAMMPS data file via write_data, version 2 Aug 2023, timestep = 10000, units = real

66 atoms
8 atom types
65 bonds
6 bond types
118 angles
9 angle types
135 dihedrals
3 dihedral types

-12 12 xlo xhi
-12 12 ylo yhi
-12 12 zlo zhi

Masses

1 15.9994
2 1.008
3 12.011
4 15.9994
5 1.008
6 15.9994
7 15.9994
8 1.008

Pair Coeffs # lj/cut/coul/long

1 0.119432 3.40025
2 0 0
3 0.252656 2.84916
4 0.0663016 3.58118
5 0.0282937 2.37341
6 0 0
7 0 0
8 0.119497 3.1

Bond Coeffs # harmonic

1 442.161 0.972
2 1109.29 1.12
3 399.792 1.43
4 400.034 1.53
5 179.254 0.971
6 155.354 1.42

Angle Coeffs # harmonic

1 47.5559 103
2 30.1731 109.5
3 47.694 109.5
4 55.1139 111
5 65.472 111.3
6 54.9931 110.3
7 55.0234 111.4
8 180.46 109
9 30.1731 110

Dihedral Coeffs # harmonic

1 0.301147 1 3
2 1.41491 1 3
3 0 1 1

Atoms # full

56 1 5 0.089 -1.660229740709555 -8.1827046154495 -3.3218106486778303 0 0 0
65 1 8 -0.324 -5.5024678108196765 -10.131793795879945 -1.3896456481286323 0 0 0
66 1 7 0.2 -5.785970436118227 -9.800085609334335 -0.4824885874523076 0 0 0
63 1 5 0.08400000000000001 -6.47118865365804 -9.224588349717159 -3.080398712925542 0 0 0
61 1 5 0.08699999999999999 -3.8652773054208445 -9.696338657904393 -3.3969562588379234 0 0 0
55 1 4 -0.04 -2.1626288885752634 -8.445691475180912 -2.3648099187131253 0 0 0
57 1 5 0.089 -2.1576147197824187 -9.543613213251332 -2.2186786636673697 0 0 0
59 1 4 -0.043 -4.359725856736133 -8.72914124850508 -3.09364994477209 0 0 0
53 1 5 0.08799999999999999 -0.5136160324757986 -8.538133509320303 -0.9417161694043448 0 0 0
58 1 3 -0.275 -3.468208320990122 -7.9579865637236775 -2.2890347474541985 0 0 0
60 1 5 0.08699999999999999 -4.589320928917751 -8.060895341202817 -3.999060615094409 0 0 0
64 1 5 0.08400000000000001 -6.021510622791019 -8.078357194241121 -1.8599588189619207 0 0 0
62 1 4 -0.039 -5.647777315022441 -8.97456398175252 -2.359931180376011 0 0 0
51 1 3 -0.275 -0.9138375149667913 -6.563435239719847 -1.4525049290615275 0 0 0
52 1 4 -0.04 -1.3754667847425726 -7.848670006952736 -1.1772294631729632 0 0 0
54 1 5 0.08799999999999999 -2.08633036256125 -7.8433191491446905 -0.29227421062866193 0 0 0
50 1 5 0.089 -2.538395290711718 -5.807734524003348 -0.19103339497479954 0 0 0
49 1 5 0.089 -0.8424756318865995 -5.084664764689784 -0.01399430522336564 0 0 0
48 1 4 -0.04 -1.5943805133597149 -5.517773116720789 -0.7513148735650649 0 0 0
46 1 5 0.089 -2.7620631607236485 -4.596896539265386 -2.338998417703553 0 0 0
45 1 4 -0.04 -1.8777733562413594 -4.351489556876236 -1.68852834247113 0 0 0
47 1 5 0.089 -1.016567846575566 -4.141066597687858 -2.3693162309605467 0 0 0
39 1 5 0.089 -2.200339473899994 -0.28030505069916184 -2.671189984001017 0 0 0
44 1 3 -0.275 -2.1291595081042134 -3.188827957922403 -0.8707545790872948 0 0 0
42 1 5 0.089 -3.1000750538338204 -1.3484872959773238 -0.8681770254292493 0 0 0
30 1 3 -0.275 1.1672884012775113 1.640980103485859 0.08358291445937228 0 0 0
31 1 4 -0.04 0.8563164250239756 0.29140045480628524 -0.1298099904809339 0 0 0
32 1 5 0.089 1.7452050074312908 -0.22732728197021246 -0.5542507900624852 0 0 0
33 1 5 0.089 0.6935065167903062 -0.18398559654434188 0.8640072580183319 0 0 0
34 1 4 -0.04 -0.38301070187709957 0.2720353434502048 -1.002497763980442 0 0 0
35 1 5 0.089 -1.2426786522056463 0.5291811384111694 -0.3426504104805155 0 0 0
36 1 5 0.089 -0.3598080481626158 1.0677439170644114 -1.7928614044251021 0 0 0
37 1 3 -0.275 -0.5854950824566525 -1.0421195078646914 -1.4980360283934298 0 0 0
38 1 4 -0.04 -1.6841718274841542 -1.2296535576288345 -2.3645403341622964 0 0 0
40 1 5 0.089 -1.3085917036233914 -1.8096786390231727 -3.247106161651114 0 0 0
41 1 4 -0.04 -2.6945770921130263 -2.0765291877920378 -1.5765463177624564 0 0 0
43 1 5 0.089 -3.5349298045867785 -2.3826845606823075 -2.2185804781429983 0 0 0
28 1 5 0.089 1.9597827963727652 2.642426503873438 -1.5414081891154778 0 0 0
27 1 4 -0.04 2.24477139370915 2.268613114920237 -0.5450068296213278 0 0 0
8 1 5 0.08699999999999999 1.3524636695265788 9.387921349406849 2.6217923193814294 0 0 0
6 1 4 -0.043 1.2475988526071948 8.281423199586625 2.6592710408811904 0 0 0
29 1 5 0.089 3.0773951281140697 1.5505432848184717 -0.718702084751568 0 0 0
26 1 5 0.089 1.798526013654341 4.062102862764566 0.6302429700462077 0 0 0
24 1 4 -0.04 2.690435551294668 3.4200113156196013 0.3892546050320672 0 0 0
21 1 5 0.089 3.0355874309878788 5.904032289069956 0.7468037111333594 0 0 0
25 1 5 0.089 3.0634483752449477 2.999790610514715 1.3530660551498794 0 0 0
4 1 5 0.08400000000000001 1.9752185486178624 7.755817994199507 4.690316661437954 0 0 0
11 1 5 0.089 4.150511650678421 8.610460897634296 1.725050940412919 0 0 0
9 1 3 -0.275 2.3662099596657504 7.526177601276873 2.183624169706866 0 0 0
23 1 3 -0.275 3.8269123856635567 4.106402923527045 -0.22107054431628945 0 0 0
20 1 4 -0.04 3.980722249147064 5.324670756789803 0.48948125391977626 0 0 0
22 1 5 0.089 4.600771706104824 6.023109293556589 -0.1320542595220654 0 0 0
18 1 5 0.089 5.6628292540203296 4.461531303513238 1.5142103194289407 0 0 0
14 1 5 0.08799999999999999 5.266393896281971 7.709426255379769 3.9347440312423316 0 0 0
17 1 4 -0.04 4.832805389963831 5.139592835969345 1.7418390942779614 0 0 0
19 1 5 0.089 4.190726994689804 4.615778529391959 2.481260128029095 0 0 0
13 1 4 -0.04 4.567548635864005 7.1262467080236584 3.2599965771282355 0 0 0
16 1 3 -0.275 5.237795209998306 6.450561079502122 2.199436538963285 0 0 0
10 1 4 -0.04 3.617107169863342 8.141737988363545 2.5959616433526795 0 0 0
15 1 5 0.08799999999999999 4.041685487957597 6.35823240180965 3.927972280650041 0 0 0
2 1 8 -0.324 0.20001152818472326 8.973487616818478 4.738654528517494 0 0 0
1 1 6 0.2 -0.7403438290881745 8.884682585056465 4.45233729711091 0 0 0
3 1 4 -0.039 1.0096359301851043 7.9443655243379565 4.145555140635974 0 0 0
5 1 5 0.08400000000000001 0.41084730261539737 6.995057912855975 4.26711951516571 0 0 0
7 1 5 0.08699999999999999 0.3521890527043741 7.954101145764355 2.069799150071076 0 0 0
12 1 5 0.089 3.3687486270634253 8.98940815933298 3.309335714885618 0 0 0

Velocities

56 -0.01512555254817917 -0.004248337872971056 0.003149016527903459
65 -0.0071417760757633425 -0.014914971229893879 -0.02299270345156422
66 0.005778570733238125 -0.0015784109483156282 -0.004735277486935922
63 -0.035090162256209194 -0.0066184640090152045 -0.016952820585265534
61 0.01962697576637763 -0.03440629322493849 -0.009876650708990265
55 -0.006363397912606497 -0.0029458603178009433 0.012921392936196827
57 -0.012003799204242419 0.0021609507530763157 -0.003192728788454403
59 0.002642617500783184 -0.00603067559194918 -0.0013288111585641126
53 -0.002769155225003063 0.011062284499869731 0.014343364730534743
58 0.00274604600025097 0.0008762751271493071 -0.008312719418415127
60 -0.003173454700147408 -0.02034947038504872 0.003391628399123994
64 0.026101651029342202 -0.010110640532935271 -0.009456488285159438
62 0.0007230508509018997 0.0051164485930582084 -0.0029833018583963504
51 0.0011411574108694037 -0.0035404766286173247 -0.004531715535031674
52 0.009883829157380111 -0.0014249660702025922 0.0029126448829162595
54 0.015817055731127544 0.006019261715394392 -0.005831463273260525
50 0.019464475596777716 0.005281887644316341 0.028626415959916277
49 0.015327197457810174 -0.0012155274737525174 -0.014060114375885724
48 0.006807575072477616 -0.004542988413974736 -0.0010286898113106026
46 -0.01615200702963263 -0.002373597050343381 0.0001794438510352159
45 -0.005126631030028183 -0.0046271865145030055 0.003919357268944692
47 0.031497355409874986 -0.006808618002651789 0.021348079066424632
39 -0.0019157040453369272 -0.015924220817229405 -0.03956469851431676
44 -0.007849312139698826 0.00410182724014684 -0.008335718009150355
42 -0.03309492250427018 0.010544385111975536 -0.03734113586163227
30 -0.006180779110432955 0.001662970147495516 1.7422300828351294e-05
31 -0.0023685891002018294 -0.004457609077811437 -0.003747810034582197
32 -0.004894409864459604 -0.003367799635206655 0.0020812886743949905
33 -0.00438698462069692 0.008674812210306748 0.006189856985320787
34 -0.006451317561789757 -0.0036514366307779343 0.007125606706158187
35 -0.02653060249792622 -0.00583341714045661 0.024955409652240634
36 -0.014861530995294062 -0.001678238938281317 -0.022343871071580302
37 0.003030650656051189 0.0015231307297369878 0.01001808166260735
38 0.011153885865938181 0.0009923065478711498 -0.003919513916090874
40 0.00555006365674831 -0.0002669195667419829 0.00927647879861301
41 0.0024994815702911602 0.002298840215999564 0.0014664148580461696
43 0.0011073718746097995 0.0063185395325974555 0.0075471354649077
28 0.008824733893980375 -0.010390571821465551 0.010862717875144617
27 0.0011969014291207164 0.0009552044834017116 -0.002000433146287423
8 0.0072494049434680945 0.002677030730767695 0.015876663528991572
6 -0.004135996562638174 0.0015097168942393927 -0.001303360260586156
29 -0.01052837016461814 0.004202827511251635 0.03055185422034059
26 0.011507845929324655 0.012509634618112284 -0.011429861055735645
24 -0.0010462358104775461 0.002767109200038209 -0.004069405270569687
21 0.021651114294237127 0.01174702354440236 0.020735349171708748
25 0.006802837993954911 0.01241304308285844 -0.010754047937460294
4 0.008057948544035513 -0.009540530112774025 0.0062413205719088335
11 -0.01937104065678018 -0.005770702552121118 -0.013336081832816087
9 -0.0022228845267973285 -0.002975182440108195 -0.005083691342698456
23 0.005493194433762961 0.0015878971599924945 -0.0006083590890715406
20 0.0014068094084960694 -0.005440458536442992 0.006429875575951727
22 -0.01627070448513195 -0.0007043980890889074 -0.013634123853258419
18 -0.006547331663623323 -0.007215700844916983 -0.0013571535727460457
14 -0.011649290122965386 -0.02169227979179203 -0.020801772351995897
17 -0.00030728206373157457 0.0013082942115609588 0.002140523029847315
19 -0.02927268680844817 0.0033623659235057692 -0.02015448728068614
13 -0.007285788936105706 0.0037077074699577582 0.0020819852617616048
16 0.009417410509430131 0.002661577125781562 0.013432394577410077
10 -0.006143804342105377 0.0026990799602709904 -0.006062247696364256
15 -0.008671116711167322 0.016567735546517744 -0.0013951079369735227
2 -0.002920922649259996 0.007135663554852529 -0.02344026775088774
1 -0.0018235178105614207 0.007818082280881633 -0.0022891562876382323
3 -0.0012456779138211701 0.00705501055347927 0.0036732734823056563
5 0.02124264355096174 -0.0206117838337908 -0.012424770945323309
7 0.008457954776704864 -0.012059286352621282 0.008221750272151936
12 -0.009088690084697006 0.0008890894086519245 -0.008747787174759467

Bonds

1 5 65 66
2 2 55 56
3 2 55 57
4 3 55 58
5 2 59 60
6 2 59 61
7 4 59 62
8 3 58 59
9 2 62 63
10 2 62 64
11 6 62 65
12 3 51 52
13 2 52 53
14 2 52 54
15 4 52 55
16 2 48 49
17 2 48 50
18 3 48 51
19 2 45 46
20 2 45 47
21 4 45 48
22 3 44 45
23 3 30 31
24 2 31 32
25 2 31 33
26 4 31 34
27 2 34 35
28 2 34 36
29 3 34 37
30 3 37 38
31 2 38 39
32 2 38 40
33 4 38 41
34 2 41 42
35 2 41 43
36 3 41 44
37 2 27 28
38 2 27 29
39 3 27 30
40 2 6 7
41 2 6 8
42 3 6 9
43 2 24 25
44 2 24 26
45 4 24 27
46 3 9 10
47 3 23 24
48 2 20 21
49 2 20 22
50 3 20 23
51 2 17 18
52 2 17 19
53 4 17 20
54 2 13 14
55 2 13 15
56 3 13 16
57 3 16 17
58 2 10 11
59 2 10 12
60 4 10 13
61 6 2 3
62 5 1 2
63 2 3 4
64 2 3 5
65 4 3 6

Angles

1 3 62 65 66
2 6 52 55 56
3 6 52 55 57
4 4 52 55 58
5 8 56 55 57
6 5 56 55 58
7 5 57 55 58
8 2 58 59 60
9 2 58 59 61
10 4 58 59 62
11 8 60 59 61
12 6 60 59 62
13 6 61 59 62
14 3 55 58 59
15 6 59 62 63
16 6 59 62 64
17 4 59 62 65
18 2 63 62 64
19 9 63 62 65
20 9 64 62 65
21 3 48 51 52
22 7 51 52 53
23 7 51 52 54
24 4 51 52 55
25 8 53 52 54
26 6 53 52 55
27 6 54 52 55
28 6 45 48 49
29 6 45 48 50
30 4 45 48 51
31 8 49 48 50
32 6 49 48 51
33 6 50 48 51
34 7 44 45 46
35 7 44 45 47
36 4 44 45 48
37 8 46 45 47
38 6 46 45 48
39 6 47 45 48
40 3 41 44 45
41 3 27 30 31
42 7 30 31 32
43 7 30 31 33
44 4 30 31 34
45 8 32 31 33
46 6 32 31 34
47 6 33 31 34
48 6 31 34 35
49 6 31 34 36
50 4 31 34 37
51 8 35 34 36
52 7 35 34 37
53 7 36 34 37
54 3 34 37 38
55 6 37 38 39
56 6 37 38 40
57 4 37 38 41
58 8 39 38 40
59 6 39 38 41
60 6 40 38 41
61 6 38 41 42
62 6 38 41 43
63 4 38 41 44
64 8 42 41 43
65 7 42 41 44
66 7 43 41 44
67 6 24 27 28
68 6 24 27 29
69 4 24 27 30
70 8 28 27 29
71 6 28 27 30
72 6 29 27 30
73 6 3 6 7
74 6 3 6 8
75 4 3 6 9
76 8 7 6 8
77 2 7 6 9
78 2 8 6 9
79 7 23 24 25
80 7 23 24 26
81 4 23 24 27
82 8 25 24 26
83 6 25 24 27
84 6 26 24 27
85 3 6 9 10
86 3 20 23 24
87 6 17 20 21
88 6 17 20 22
89 4 17 20 23
90 8 21 20 22
91 7 21 20 23
92 7 22 20 23
93 6 16 17 18
94 6 16 17 19
95 4 16 17 20
96 8 18 17 19
97 6 18 17 20
98 6 19 17 20
99 6 10 13 14
100 6 10 13 15
101 4 10 13 16
102 8 14 13 15
103 7 14 13 16
104 7 15 13 16
105 3 13 16 17
106 5 9 10 11
107 5 9 10 12
108 4 9 10 13
109 8 11 10 12
110 6 11 10 13
111 6 12 10 13
112 3 1 2 3
113 9 2 3 4
114 9 2 3 5
115 4 2 3 6
116 2 4 3 5
117 6 4 3 6
118 6 5 3 6

Dihedrals

1 1 52 55 58 59
2 3 56 55 58 59
3 3 57 55 58 59
4 3 58 59 62 63
5 3 58 59 62 64
6 2 58 59 62 65
7 3 60 59 62 63
8 3 60 59 62 64
9 3 60 59 62 65
10 3 61 59 62 63
11 3 61 59 62 64
12 3 61 59 62 65
13 3 55 58 59 60
14 3 55 58 59 61
15 1 55 58 59 62
16 1 59 62 65 66
17 3 63 62 65 66
18 3 64 62 65 66
19 3 48 51 52 53
20 3 48 51 52 54
21 1 48 51 52 55
22 3 51 52 55 56
23 3 51 52 55 57
24 2 51 52 55 58
25 3 53 52 55 56
26 3 53 52 55 57
27 3 53 52 55 58
28 3 54 52 55 56
29 3 54 52 55 57
30 3 54 52 55 58
31 1 45 48 51 52
32 3 49 48 51 52
33 3 50 48 51 52
34 3 44 45 48 49
35 3 44 45 48 50
36 2 44 45 48 51
37 3 46 45 48 49
38 3 46 45 48 50
39 3 46 45 48 51
40 3 47 45 48 49
41 3 47 45 48 50
42 3 47 45 48 51
43 3 41 44 45 46
44 3 41 44 45 47
45 1 41 44 45 48
46 3 27 30 31 32
47 3 27 30 31 33
48 1 27 30 31 34
49 3 30 31 34 35
50 3 30 31 34 36
51 2 30 31 34 37
52 3 32 31 34 35
53 3 32 31 34 36
54 3 32 31 34 37
55 3 33 31 34 35
56 3 33 31 34 36
57 3 33 31 34 37
58 1 31 34 37 38
59 3 35 34 37 38
60 3 36 34 37 38
61 3 34 37 38 39
62 3 34 37 38 40
63 1 34 37 38 41
64 3 37 38 41 42
65 3 37 38 41 43
66 2 37 38 41 44
67 3 39 38 41 42
68 3 39 38 41 43
69 3 39 38 41 44
70 3 40 38 41 42
71 3 40 38 41 43
72 3 40 38 41 44
73 1 38 41 44 45
74 3 42 41 44 45
75 3 43 41 44 45
76 1 24 27 30 31
77 3 28 27 30 31
78 3 29 27 30 31
79 1 3 6 9 10
80 3 7 6 9 10
81 3 8 6 9 10
82 3 23 24 27 28
83 3 23 24 27 29
84 2 23 24 27 30
85 3 25 24 27 28
86 3 25 24 27 29
87 3 25 24 27 30
88 3 26 24 27 28
89 3 26 24 27 29
90 3 26 24 27 30
91 3 6 9 10 11
92 3 6 9 10 12
93 1 6 9 10 13
94 3 20 23 24 25
95 3 20 23 24 26
96 1 20 23 24 27
97 1 17 20 23 24
98 3 21 20 23 24
99 3 22 20 23 24
100 3 16 17 20 21
101 3 16 17 20 22
102 2 16 17 20 23
103 3 18 17 20 21
104 3 18 17 20 22
105 3 18 17 20 23
106 3 19 17 20 21
107 3 19 17 20 22
108 3 19 17 20 23
109 1 10 13 16 17
110 3 14 13 16 17
111 3 15 13 16 17
112 3 13 16 17 18
113 3 13 16 17 19
114 1 13 16 17 20
115 3 9 10 13 14
116 3 9 10 13 15
117 2 9 10 13 16
118 3 11 10 13 14
119 3 11 10 13 15
120 3 11 10 13 16
121 3 12 10 13 14
122 3 12 10 13 15
123 3 12 10 13 16
124 3 1 2 3 4
125 3 1 2 3 5
126 1 1 2 3 6
127 3 2 3 6 7
128 3 2 3 6 8
129 2 2 3 6 9
130 3 4 3 6 7
131 3 4 3 6 8
132 3 4 3 6 9
133 3 5 3 6 7
134 3 5 3 6 8
135 3 5 3 6 9
