LAMMPS data file via write_data, version 20 Nov 2019, timestep = 76

11400 atoms
5 atom types

-7.7775018533566367e+01 7.7775018533566367e+01 xlo xhi
-7.9370052598409968e+00 7.9370052598409968e+00 ylo yhi
-7.9370052598409968e+00 7.9370052598409968e+00 zlo zhi

Masses

1 1
2 1
3 1
4 1
5 1

PairIJ Coeffs # lj/cut

1 1 1 1 2.5
1 2 1 1 2.5
1 3 1 1 2.5
1 4 0.8 1 2.5
1 5 0.1 3 2.5
2 2 1 1 2.5
2 3 1 1 2.5
2 4 0.8 1 2.5
2 5 0.1 3 2.5
3 3 1 1 2.5
3 4 0.8 1 2.5
3 5 0.1 3 2.5
4 4 1 1 2.5
4 5 1.41421 1.73205 2.5
5 5 2 3 2.5

Atoms # atomic

1 1 -7.7759144523046686e+01 -7.9370052598409968e+00 -7.9370052598409968e+00 0 0 0
2 1 -7.6988951020457662e+01 -7.1433047338568976e+00 -7.9370052598409968e+00 0 0 0
3 1 -7.6988951020457662e+01 -7.9370052598409968e+00 -7.1433047338568976e+00 0 0 0
4 1 -7.7759144523046686e+01 -7.1433047338568976e+00 -7.1433047338568976e+00 0 0 0
5 1 -7.6218757517868639e+01 -7.9370052598409968e+00 -7.9370052598409968e+00 0 0 0
6 1 -7.6218757517868639e+01 -7.1433047338568976e+00 -7.1433047338568976e+00 0 0 0
2251 4 -6.5086442948878599e+01 -6.5977176146316596e+00 -7.4567357709448192e+00 0 0 0
6323 4 -6.3090281828475653e+01 -7.7323350255735024e+00 -7.8335918218394109e+00 0 0 0
4317 4 -6.1860338172476077e+01 -7.7272801780352607e+00 -7.3848702394907120e+00 0 0 0
2934 4 -6.0523418424311700e+01 -6.5631811479710169e+00 -6.9205472051935848e+00 0 0 0
2653 4 -5.8887122656549806e+01 -7.3795820446090783e+00 -6.5582318408340443e+00 0 0 0
5720 4 -5.8771032087266953e+01 -7.2594827939083224e+00 -7.7068506768749332e+00 0 0 0
4121 4 -5.7886147857298013e+01 -6.9969989015927680e+00 -6.9770063700878877e+00 0 0 0
5415 4 -5.6782684673448337e+01 -6.8814250318458408e+00 -7.2715614602719123e+00 0 0 0
2339 4 -5.1528199487834812e+01 -6.9078998731818002e+00 -7.1851140057672938e+00 0 0 0
3029 4 -5.2292553357857003e+01 -7.6344848249536916e+00 -7.5719151899844395e+00 0 0 0
5514 4 -5.2423622929338649e+01 -6.5203102304101277e+00 -7.7856516087642742e+00 0 0 0
5418 4 -4.8526055641324909e+01 -7.8315518161397346e+00 -6.5600157709818445e+00 0 0 0
6198 4 -4.9407714916053258e+01 -7.0887831986275192e+00 -7.6087951945382128e+00 0 0 0
5387 4 -4.5882881233591185e+01 -7.5256827760927756e+00 -6.4504770328387142e+00 0 0 0
4843 4 -4.5346577172323677e+01 -7.2567043836462206e+00 -7.4027280686101271e+00 0 0 0
4269 4 -4.3980681700306548e+01 -7.8981273169027952e+00 -6.7129183745697736e+00 0 0 0
4660 4 -4.1221670439760146e+01 -7.1151464874126233e+00 -7.3311320700724609e+00 0 0 0
2557 4 -3.9481212750192292e+01 -6.7303992239048691e+00 -7.2982315435728680e+00 0 0 0
5012 4 -3.9077201544840214e+01 -7.4015624439799952e+00 -6.4234725610184160e+00 0 0 0
2606 4 -3.8111876803238943e+01 -7.3649767092539076e+00 -7.0079601597695227e+00 0 0 0
2762 4 -3.7642424189965581e+01 -7.6690247069929915e+00 7.8958376310520153e+00 0 0 -1
4908 4 -3.4297010809297547e+01 -7.8946485385111984e+00 -6.6629546907513157e+00 0 0 0
6243 4 -3.4254738713012365e+01 -6.9029270006306840e+00 -7.2431733592421379e+00 0 0 0
2288 4 -3.1385768575902425e+01 -6.6056383549155919e+00 -7.3456692737298690e+00 0 0 0
5447 4 -2.7690432172524797e+01 -7.3045099330533345e+00 -6.7000618322255168e+00 0 0 0
5351 4 -2.7121316463833512e+01 -7.0783167837485488e+00 -7.6500580413501877e+00 0 0 0
5738 4 -2.6612939346854141e+01 -7.6129466281002731e+00 -6.6437119848566528e+00 0 0 0
4682 4 -2.3761864388480891e+01 -7.4560065826863884e+00 -7.6554231714346441e+00 0 0 0
2987 4 -2.2396128469076160e+01 -6.4109358012050146e+00 -6.6759200950661910e+00 0 0 0
3510 4 -2.2809113183469499e+01 -6.7500135794630562e+00 -7.6616292281360154e+00 0 0 0
4773 4 -2.0539559435078896e+01 -6.8007859025570720e+00 -7.3130140848603080e+00 0 0 0
6158 4 -2.1437759924104721e+01 -7.5083078455314833e+00 -7.4103295539948828e+00 0 0 0
3562 4 -1.7639718741792318e+01 -7.3962120906509989e+00 -6.3421847877775139e+00 0 0 0
4546 4 -1.7192246224006773e+01 -6.8853627622710176e+00 -7.4097883981357082e+00 0 0 0
4718 4 -1.6391167151185829e+01 -6.7740711083124969e+00 -6.6449020673549155e+00 0 0 0
3238 4 -1.5723163218877778e+01 -6.9643030779079318e+00 -7.7429652544162151e+00 0 0 0
4965 4 -8.8004934625185438e+00 -7.1432485739006752e+00 -6.7211930564082261e+00 0 0 0
3544 4 -5.4784291431319554e+00 -6.6665737950727939e+00 -7.8240846001396953e+00 0 0 0
601 2 5.0677177122249734e-24 -7.9370052598409968e+00 -7.9370052598409968e+00 0 0 0
602 2 -5.6637308291118449e-32 -7.1433047338568976e+00 -7.1433047338568976e+00 0 0 0
7251 4 9.5007881409737074e+00 -6.6003500738243517e+00 -7.4443430755618794e+00 0 0 0
9317 4 1.2766792359877027e+01 -7.5493474724275567e+00 -7.0979470030200735e+00 0 0 0
7934 4 1.4058565760816675e+01 -6.5922773847626202e+00 -6.9365396747248749e+00 0 0 0
7653 4 1.5736209516238874e+01 -7.3861608222874251e+00 -6.5853000130713797e+00 0 0 0
10720 4 1.5825753249162446e+01 -7.2874452212811045e+00 -7.6907188823605823e+00 0 0 0
9121 4 1.6728578667623310e+01 -7.0044931467048688e+00 -6.9541000404371180e+00 0 0 0
10415 4 1.7826984957576919e+01 -6.8829816525120515e+00 -7.2593475081130263e+00 0 0 0
7339 4 2.2606519224188663e+01 -6.6596101150855675e+00 -7.1165434738980728e+00 0 0 0
8029 4 2.2026315459619436e+01 -7.4870804583707802e+00 -7.6592247825663868e+00 0 0 0
10514 4 2.2079187603256383e+01 -6.4556901139424214e+00 7.8590076091452561e+00 0 0 -1
11357 5 2.3573666757111134e+01 7.5226136622889248e+00 -7.1331586874910196e+00 0 -1 0
10418 4 2.5871591739452484e+01 -7.8749151256527066e+00 -6.4369674280746159e+00 0 0 0
10902 5 2.7467420290299621e+01 -7.6513325397895517e+00 -7.4830962624397923e+00 0 0 0
9843 4 2.9297899434714793e+01 -7.3954328567071199e+00 -7.1261661249035821e+00 0 0 0
10387 4 2.8705480757154930e+01 -6.9492566659708723e+00 -6.2806948804924341e+00 0 0 0
9269 4 3.0225759682473555e+01 -7.5910386719181258e+00 -6.7226436418027982e+00 0 0 0
9660 4 3.3616248735975553e+01 -7.3538013587265727e+00 -6.3155084629994063e+00 0 0 0
7557 4 3.5078158458271233e+01 -6.6925389433584392e+00 -7.1810925936368433e+00 0 0 0
10012 4 3.5402003391234096e+01 -7.3409355887908090e+00 -6.3783588776253382e+00 0 0 0
7606 4 3.6290100721464007e+01 -7.8721110944781829e+00 -6.7000416381683721e+00 0 0 0
7762 4 3.7036952811414352e+01 -7.8407631995901470e+00 7.4410759904004902e+00 0 0 -1
11337 5 3.6896045886087293e+01 -6.2700391215275380e+00 -7.4149338376569531e+00 0 0 0
9908 4 3.9548718940788106e+01 -7.2976648617139235e+00 -6.6904407743755865e+00 0 0 0
7288 4 4.3190540484041811e+01 -6.6281951795380323e+00 -7.3341315569619105e+00 0 0 0
10351 4 4.7477652250189841e+01 -7.0639470082551590e+00 -7.6170490981499528e+00 0 0 0
10447 4 4.6802500851483522e+01 -7.4792227908563689e+00 -6.8284954936339242e+00 0 0 0
10738 4 4.7987944636391532e+01 -7.6662585075261651e+00 -6.6762684813485107e+00 0 0 0
9682 4 5.0745554601271031e+01 -7.4275751297533965e+00 -7.6773220069478354e+00 0 0 0
7987 4 5.1949055369574872e+01 -6.4513644706567197e+00 -6.6629232134426077e+00 0 0 0
8510 4 5.1428834526065550e+01 -6.4871056985237638e+00 -7.5991345915989177e+00 0 0 0
9773 4 5.3909113117284626e+01 -6.9901313928569726e+00 7.9318983910431902e+00 0 0 -1
11361 5 5.2535434348294515e+01 7.7180282742039639e+00 7.9327681789814175e+00 0 -1 -1
8562 4 5.6563735305554353e+01 -7.2870556855543196e+00 -6.9832571983297607e+00 0 0 0
9546 4 5.7502728730286975e+01 -6.9069059674608999e+00 -7.4189852366492728e+00 0 0 0
9718 4 5.8329263091705251e+01 -6.5947214437436070e+00 -6.7748752866238720e+00 0 0 0
8238 4 5.8939918766951536e+01 -6.9693979301395892e+00 -7.7788491031511553e+00 0 0 0
9965 4 6.5454830411445528e+01 -7.5463511773117213e+00 -7.0925104399844505e+00 0 0 0
8544 4 6.9141537205297709e+01 -6.7865999680623830e+00 -7.8997142786747414e+00 0 0 0
801 3 7.6218757517868639e+01 -7.9370052598409968e+00 -7.9370052598409968e+00 0 0 0
804 3 7.6218757517868639e+01 -7.1433047338568976e+00 -7.1433047338568976e+00 0 0 0
802 3 7.6988951020457662e+01 -7.1433047338568976e+00 -7.9370052598409968e+00 0 0 0
803 3 7.6988951020457662e+01 -7.9370052598409968e+00 -7.1433047338568976e+00 0 0 0
805 3 7.7759144523046686e+01 -7.9370052598409968e+00 -7.9370052598409968e+00 0 0 0
806 3 7.7759144523046686e+01 -7.1433047338568976e+00 -7.1433047338568976e+00 0 0 0
7 1 -7.7759144523046686e+01 -6.3496042078727974e+00 -7.9370052598409968e+00 0 0 0
8 1 -7.6988951020457662e+01 -5.5559036818886973e+00 -7.9370052598409968e+00 0 0 0
9 1 -7.6988951020457662e+01 -6.3496042078727974e+00 -7.1433047338568976e+00 0 0 0
10 1 -7.7759144523046686e+01 -5.5559036818886973e+00 -7.1433047338568976e+00 0 0 0
11 1 -7.6218757517868639e+01 -6.3496042078727974e+00 -7.9370052598409968e+00 0 0 0
12 1 -7.6218757517868639e+01 -5.5559036818886973e+00 -7.1433047338568976e+00 0 0 0
5988 4 -7.1238977528803645e+01 -5.7149309887687449e+00 -6.8676892802148002e+00 0 0 0
1553 4 -7.0075735976412346e+01 -6.1430507312161904e+00 -6.7340484449220357e+00 0 0 0
3364 4 -7.0333186682793652e+01 -5.3067801572090287e+00 -7.3839058693511221e+00 0 0 0
4667 4 -6.9686705207356979e+01 -5.9978786023286954e+00 -7.9359644539875118e+00 0 0 0
3537 4 -6.8288701734636803e+01 -5.5534198229042717e+00 -7.0787822224630572e+00 0 0 0
4729 4 -6.9021427339175474e+01 -6.4165137284497602e+00 -7.0001852812051997e+00 0 0 0
4999 4 -6.4996583641818361e+01 -5.5094382622975715e+00 -6.6203014381820680e+00 0 0 0
5578 4 -6.5886278577966820e+01 -5.6258666751443309e+00 -7.3074431156873141e+00 0 0 0
5386 4 -6.1347128569732604e+01 -5.3317685720154984e+00 -7.0229136452958043e+00 0 0 0
4053 4 -5.8586161364954691e+01 -6.0371852090840195e+00 -7.0203296374875732e+00 0 0 0
2823 4 -5.7440988993050148e+01 -5.9647706596615953e+00 -6.9182319383983630e+00 0 0 0
2602 4 -5.4600229005212697e+01 -5.5476841603972780e+00 -6.7584938590989685e+00 0 0 0
3686 4 -5.5064966769874907e+01 -6.2113743714784979e+00 -7.5114179481951471e+00 0 0 0
4085 4 -5.4091149602085061e+01 -6.6683357906501310e+00 -7.2132576597110791e+00 0 0 0
5446 4 -5.4089571619308977e+01 -5.6400265912083967e+00 -7.7347634140670465e+00 0 0 0
2021 4 -5.3374652176691647e+01 -5.8689394005732263e+00 -6.9233788362853277e+00 0 0 0
2282 4 -5.1318701777999742e+01 -5.8036791720866709e+00 -6.8231076125241605e+00 0 0 0
5585 4 -5.2381353169325706e+01 -5.9193253021400771e+00 -6.4474319193643952e+00 0 0 0
3936 4 -5.0178559820693209e+01 -5.7596134742387886e+00 -6.7949715578768792e+00 0 0 0
3595 4 -4.3858761326562750e+01 -6.3973773411934500e+00 -7.1632955135154557e+00 0 0 0
1951 4 -4.1867063891966637e+01 -5.6011440178077256e+00 -6.9396026503875730e+00 0 0 0
2455 4 -4.0270588142211729e+01 -5.6609185253860179e+00 -7.4509363946690765e+00 0 0 0
5871 4 -3.6536418635586308e+01 -5.7764638706354168e+00 -7.0924753457796434e+00 0 0 0
5619 4 -3.3562533604186015e+01 -5.8662102874806088e+00 -6.8306674773705334e+00 0 0 0
1852 4 -3.2038530604896856e+01 -5.8179805441334942e+00 -6.7831613839636198e+00 0 0 0
4001 4 -3.0395865393167504e+01 -5.9889716123757912e+00 -7.7300862526588467e+00 0 0 0
2819 4 -2.8057005112810607e+01 -5.2194621164355555e+00 -6.7766066759455228e+00 0 0 0
1560 4 -2.7047014223508317e+01 -5.8502745313620821e+00 -7.5824615565183668e+00 0 0 0
1770 4 -2.5946757389338671e+01 -5.1260357629457980e+00 -6.8779420573121870e+00 0 0 0
3961 4 -2.5489020663644979e+01 -6.1500060602464757e+00 -6.6620808551250654e+00 0 0 0
4811 4 -2.4653322576171991e+01 -5.6178360779028846e+00 -7.4884489491752291e+00 0 0 0
2085 4 -2.2130229136182646e+01 -5.6802059086552861e+00 -7.5679572486007354e+00 0 0 0
3384 4 -2.1404959633557688e+01 -5.0002104849383562e+00 -6.8794324221483674e+00 0 0 0
5713 4 -2.1473582812184091e+01 -6.5073864987333740e+00 -7.9217456587041273e+00 0 0 0
4352 4 -2.0298246240952146e+01 -5.3926435895602092e+00 -6.6109891537006611e+00 0 0 0
2810 4 -1.8347109572243447e+01 -5.3905043223333706e+00 -7.3362429464062142e+00 0 0 0
3739 4 -1.6710922885867234e+01 -4.7581605282098209e+00 -6.8076604729527892e+00 0 0 0
4071 4 -1.6760837077729565e+01 -5.8393958455578030e+00 -7.2310889387183197e+00 0 0 0
2478 4 -1.4372622627196327e+01 -6.6366282843123763e+00 -6.9504814876521479e+00 0 0 0
2528 4 -1.4672631726290383e+01 -5.5843251643656062e+00 -6.5784510403765424e+00 0 0 0
3986 4 -9.3923213901509293e+00 -5.6004942937368973e+00 -7.7474451891391984e+00 0 0 0
3929 4 -8.0425033819347256e+00 -6.4632089038953939e+00 7.9346187389517953e+00 0 0 -1
5026 4 -6.9491152353240828e+00 -5.3988278681470216e+00 -7.1221373876553624e+00 0 0 0
3591 4 -4.0745694656925400e+00 -5.5030432412913450e+00 -7.5173129673682233e+00 0 0 0
603 2 6.0465173141017338e-28 -6.3496042078727974e+00 -7.9370052598409968e+00 0 0 0
604 2 1.0575699601281541e-31 -5.5559036818886973e+00 -7.1433047338568976e+00 0 0 0
6553 4 4.6451967217339343e+00 -6.2636875550357063e+00 -6.8290649679638378e+00 0 0 0
8364 4 4.1560106761907480e+00 -5.3890146661683174e+00 -7.3257584709585055e+00 0 0 0
9667 4 5.2396213777559861e+00 -5.7263344189332033e+00 -7.6244415191028763e+00 0 0 0
8537 4 6.5703409360831371e+00 -5.5774908207799170e+00 -7.1473498430266940e+00 0 0 0
9729 4 5.6910587330933824e+00 -5.9876420746857351e+00 -6.5901275008769149e+00 0 0 0
10578 4 8.6919554145163769e+00 -5.6385363547249145e+00 -7.3424761886010579e+00 0 0 0
9999 4 9.6551457352031598e+00 -5.6949262642357850e+00 -6.6986015846607394e+00 0 0 0
10386 4 1.3500896297678647e+01 -5.5004406882654555e+00 -7.5782399902769386e+00 0 0 0
7823 4 1.7167436467977918e+01 -5.9644557096334347e+00 -6.8966960761945852e+00 0 0 0
9053 4 1.6016929663130490e+01 -6.0269565411293078e+00 -6.9775461992820702e+00 0 0 0
7602 4 2.0051405608442884e+01 -5.5620140544620380e+00 -6.7510359197388645e+00 0 0 0
8686 4 1.9536941724570223e+01 -6.2064409681546087e+00 -7.5053127737893579e+00 0 0 0
10446 4 2.0466246614966309e+01 -5.6271615386055505e+00 -7.8130054698176279e+00 0 0 0
7021 4 2.1133462956094455e+01 -5.8091739072070396e+00 -6.9460267929236128e+00 0 0 0
9085 4 2.0493217744160795e+01 -6.7078897155322830e+00 -7.2194502836377081e+00 0 0 0
7282 4 2.2508505093911005e+01 -5.7045312606456866e+00 -6.4410947453834888e+00 0 0 0
10585 4 2.1718684391055660e+01 -6.1673833514168868e+00 -6.0352554306554573e+00 0 0 0
8936 4 2.4804440979661663e+01 -7.2084645519289934e+00 -5.9578225910175515e+00 0 0 0
11347 5 2.6856875700039282e+01 -5.0736936820554464e+00 -6.9733547585163027e+00 0 0 0
8595 4 3.0264056526758718e+01 -6.5604433590493301e+00 -6.9297389170705301e+00 0 0 0
6951 4 3.3569209968212334e+01 -6.0719639260359290e+00 -6.8759053133221801e+00 0 0 0
7455 4 3.4633712017638580e+01 -5.7621558455582473e+00 -7.5538312352597590e+00 0 0 0
10871 4 3.8650802113406115e+01 -5.4946591969722984e+00 -7.3319185803425206e+00 0 0 0
10619 4 4.1055129546202814e+01 -5.7454484043532181e+00 -6.7955409663438502e+00 0 0 0
6852 4 4.2550543756970050e+01 -5.8352378214703107e+00 -6.7682550868802043e+00 0 0 0
9001 4 4.4233507748143424e+01 -6.2352482703253607e+00 -7.3913187733472201e+00 0 0 0
7819 4 4.6547369719417553e+01 -5.1361791839029616e+00 -6.9079829533865951e+00 0 0 0
6560 4 4.7566339153477536e+01 -5.8376899648652021e+00 -7.5864876387268065e+00 0 0 0
6770 4 4.8558480360966229e+01 -5.3334577231540745e+00 -7.0522767364038215e+00 0 0 0
8961 4 4.9209915272857685e+01 -6.1866982971010547e+00 -6.6544092046718522e+00 0 0 0
9811 4 4.9948398884888782e+01 -5.7686182475251480e+00 -7.5313762998548297e+00 0 0 0
7085 4 5.2354123623040280e+01 -5.9799536065704491e+00 -7.8028313966458347e+00 0 0 0
8384 4 5.3220236682513608e+01 -5.7704167022898005e+00 -7.2271647325559538e+00 0 0 0
10713 4 5.3378621727756183e+01 -6.0835056385886128e+00 7.5790765438035903e+00 0 0 -1
9352 4 5.3706673666304233e+01 -4.8172122211313901e+00 -6.8436694546259682e+00 0 0 0
7810 4 5.6515260293559543e+01 -5.3365705621193671e+00 -7.2597829959333975e+00 0 0 0
8739 4 5.7834416865622579e+01 -4.7019262245819293e+00 -6.9194971678726258e+00 0 0 0
9071 4 5.7801791169221737e+01 -5.7812384580488736e+00 -7.2800301988223026e+00 0 0 0
7478 4 6.0203609989853149e+01 -6.6399943467621032e+00 -6.9518962791287544e+00 0 0 0
7528 4 5.9979717750451080e+01 -5.4909354985807051e+00 -6.7019011753661850e+00 0 0 0
8929 4 6.6693557565923854e+01 -6.6657433115761524e+00 7.4532531299854003e+00 0 0 -1
8986 4 6.5123184569426627e+01 -5.5687293662949093e+00 -7.8292247781537192e+00 0 0 0
10026 4 6.7745614796021144e+01 -5.2713553728174229e+00 -7.6507614644533843e+00 0 0 0
8591 4 7.0652637183734996e+01 -5.5250172661131298e+00 -7.3829896069946379e+00 0 0 0
807 3 7.6218757517868639e+01 -6.3496042078727974e+00 -7.9370052598409968e+00 0 0 0
810 3 7.6218757517868639e+01 -5.5559036818886973e+00 -7.1433047338568976e+00 0 0 0
808 3 7.6988951020457662e+01 -5.5559036818886973e+00 -7.9370052598409968e+00 0 0 0
809 3 7.6988951020457662e+01 -6.3496042078727974e+00 -7.1433047338568976e+00 0 0 0
811 3 7.7759144523046686e+01 -6.3496042078727974e+00 -7.9370052598409968e+00 0 0 0
812 3 7.7759144523046686e+01 -5.5559036818886973e+00 -7.1433047338568976e+00 0 0 0
13 1 -7.7759144523046686e+01 -4.7622031559045981e+00 -7.9370052598409968e+00 0 0 0
14 1 -7.6988951020457662e+01 -3.9685026299204984e+00 -7.9370052598409968e+00 0 0 0
15 1 -7.6988951020457662e+01 -4.7622031559045981e+00 -7.1433047338568976e+00 0 0 0
16 1 -7.7759144523046686e+01 -3.9685026299204984e+00 -7.1433047338568976e+00 0 0 0
17 1 -7.6218757517868639e+01 -4.7622031559045981e+00 -7.9370052598409968e+00 0 0 0
18 1 -7.6218757517868639e+01 -3.9685026299204984e+00 -7.1433047338568976e+00 0 0 0
5668 4 -7.0381568213820117e+01 -4.2595356785774214e+00 -7.0737296462890136e+00 0 0 0
2096 4 -6.9067733991782220e+01 -3.8027266339458499e+00 -7.6207476221065695e+00 0 0 0
2231 4 -6.8282901836635546e+01 -4.6024995194174325e+00 -7.6764463890198504e+00 0 0 0
1572 4 -6.6078820415239406e+01 -3.9902649220664155e+00 -7.7332060434412604e+00 0 0 0
1870 4 -6.5059442024653464e+01 -3.6372684989234680e+00 -7.2843626516816657e+00 0 0 0
1494 4 -6.3508828400138135e+01 -4.5958210669320918e+00 -7.0547692992193767e+00 0 0 0
3788 4 -6.2917656799677786e+01 -4.3201409417105721e+00 7.9026737727185008e+00 0 0 -1
1958 4 -5.8802463934166894e+01 -4.9011710456448281e+00 -7.2379561763502833e+00 0 0 0
5156 4 -5.7945286645000131e+01 -4.1561724259719330e+00 -7.1172769535158880e+00 0 0 0
1657 4 -5.4200677585353596e+01 -4.5561761650123351e+00 -7.4115207904792610e+00 0 0 0
2095 4 -5.3080897611056074e+01 -4.6764613508740469e+00 -7.2479221312175799e+00 0 0 0
2755 4 -5.0167213861277538e+01 -3.7672244394330439e+00 -6.6791770210741745e+00 0 0 0
2965 4 -4.9098180862999726e+01 -3.8815091793974581e+00 -7.0555530078173083e+00 0 0 0
3706 4 -4.9510974236447368e+01 -4.5135725985142603e+00 -6.1748045171539019e+00 0 0 0
4884 4 -4.8898922728285172e+01 -4.9681944030923813e+00 -7.0114402656669990e+00 0 0 0
5556 4 -4.9773389522762805e+01 -4.5953486315384779e+00 -7.6243910661782470e+00 0 0 0
6091 4 -4.7992657922018708e+01 -4.3096663279656955e+00 -7.5550955017942600e+00 0 0 0
3308 4 -4.4882646280994543e+01 -4.2974008731171454e+00 -7.1487647256881459e+00 0 0 0
5049 4 -4.2005192293781199e+01 -4.1205683300238123e+00 -6.4788566293434737e+00 0 0 0
4806 4 -4.1181788900891327e+01 -3.9019860151942178e+00 -7.6495188058762364e+00 0 0 0
2843 4 -3.7754990741001471e+01 -4.7142399064054539e+00 -7.3462032732972862e+00 0 0 0
1816 4 -3.6839057638894403e+01 -5.0486458665708911e+00 -7.8644849827327432e+00 0 0 0
3468 4 -3.6038419473787485e+01 -3.8379783280571167e+00 -6.7366315621654929e+00 0 0 0
5075 4 -3.6768708923719750e+01 -4.6741971088611161e+00 -6.7864944210675828e+00 0 0 0
4185 4 -3.2120118603627006e+01 -3.7135641749577224e+00 -6.7107398342257900e+00 0 0 0
3715 4 -2.8268335306064714e+01 -4.2093068828299778e+00 -7.1815476089051362e+00 0 0 0
4693 4 -2.8579969575266510e+01 -3.7445845737124070e+00 7.7219921846290811e+00 0 0 -1
5651 4 -2.7627988193425519e+01 -3.5198900315857973e+00 -6.6382746402571371e+00 0 0 0
3818 4 -2.6365767005786953e+01 -3.8900239399512890e+00 -6.7842783733839047e+00 0 0 0
5439 4 -2.7168279226476496e+01 -3.8997446946363072e+00 -7.5668867941843327e+00 0 0 0
3714 4 -2.5377570751624766e+01 -4.2443968294043914e+00 -7.2120635770616897e+00 0 0 0
5565 4 -2.3459417806614784e+01 -4.6755187542776531e+00 -6.9309933889274618e+00 0 0 0
5549 4 -2.0309106752824700e+01 -4.4126744579906045e+00 -7.1186991674402931e+00 0 0 0
5815 4 -1.9227366396262404e+01 -4.7119881823018650e+00 -6.9603671452795250e+00 0 0 0
6053 4 -1.8165887147382190e+01 -4.5639162574003604e+00 -6.6027951371870834e+00 0 0 0
5380 4 -1.4235364629722417e+01 -4.6292003655672387e+00 -7.0891162538190819e+00 0 0 0
2507 4 -9.3795565680110009e+00 -3.9392922854545502e+00 -7.6676077426219180e+00 0 0 0
2658 4 -6.7753862242837277e+00 -4.3824827152100196e+00 -7.5947865458209769e+00 0 0 0
4192 4 -4.7415260239954931e+00 -5.0698401939198465e+00 -6.6915540127820199e+00 0 0 0
5276 4 -4.8562197003693246e+00 -4.5555864405435331e+00 -7.6694682749971879e+00 0 0 0
6374 4 -3.7674987186936217e+00 -4.5885256984578842e+00 -6.9576356448468095e+00 0 0 0
605 2 5.0677017979306184e-24 -4.7622031559045981e+00 -7.9370052598409968e+00 0 0 0
606 2 2.6267184515155459e-27 -3.9685026299204984e+00 -7.1433047338568976e+00 0 0 0
10668 4 4.4766614602103783e+00 -4.5089215730415733e+00 -6.7412179774338288e+00 0 0 0
7096 4 5.6116848297543367e+00 -4.4730361527306757e+00 7.8012802737885636e+00 0 0 -1
7231 4 6.5875685700845121e+00 -4.4829458301859626e+00 -7.3041870784258904e+00 0 0 0
6572 4 8.6476523210007983e+00 -4.3903112182430304e+00 7.8003903789202065e+00 0 0 -1
6870 4 9.7589808677685905e+00 -3.9848198252507316e+00 -7.6959644344317546e+00 0 0 0
6494 4 1.1036626154994559e+01 -4.5412632408621558e+00 -7.1014738960765618e+00 0 0 0
8788 4 1.1685237108033464e+01 -4.3834220561307697e+00 7.8626998374695694e+00 0 0 -1
6958 4 1.5804811126102146e+01 -4.9129053180985167e+00 -7.1957504946833559e+00 0 0 0
10156 4 1.6672776084444873e+01 -4.1566392178645950e+00 -7.0551305218840747e+00 0 0 0
6657 4 2.0412594307166298e+01 -4.5598887001057351e+00 -7.4063322519241330e+00 0 0 0
7095 4 2.1549041386774487e+01 -4.6526211672007740e+00 -7.2441758555864046e+00 0 0 0
11140 5 2.4151667010906724e+01 -5.7410251149955860e+00 -7.1163209145601769e+00 0 0 0
11194 5 2.3147259941443554e+01 -3.2843798133751512e+00 -7.1636805478818024e+00 0 0 0
7755 4 2.4718631095709274e+01 -3.6097428757498768e+00 -6.1558029560703478e+00 0 0 0
7965 4 2.5610146132501423e+01 -3.2842838586336156e+00 -7.0749109518652489e+00 0 0 0
8706 4 2.5160570251212100e+01 -4.6115939637572216e+00 -5.7425918107110920e+00 0 0 0
9884 4 2.5186061587526925e+01 -4.2418252956825100e+00 -6.9114175514126952e+00 0 0 0
10556 4 2.5191796732554540e+01 -4.1925528170475168e+00 7.8817276026460839e+00 0 0 -1
8308 4 3.0084000457714218e+01 -4.2927799528109647e+00 -7.5763876274894457e+00 0 0 0
10049 4 3.2049441257114914e+01 -3.5485984148647156e+00 -6.5179042510609122e+00 0 0 0
11274 5 3.3857254977791726e+01 -4.2766163341257544e+00 -6.6901425247448341e+00 0 0 0
9806 4 3.3269965217459095e+01 -3.4646626372009717e+00 7.5846931038521728e+00 0 0 -1
7843 4 3.6653153507339084e+01 -4.3094650414049402e+00 -7.1595350084001925e+00 0 0 0
6816 4 3.7949323936509181e+01 -4.8887745101072193e+00 -7.8945633437295788e+00 0 0 0
10075 4 3.7875433274522429e+01 -4.8476662396259540e+00 -6.7880326089763923e+00 0 0 0
11260 5 3.7978423415264331e+01 -3.0681407592309404e+00 -7.5180833251637997e+00 0 0 0
8468 4 3.9030824002036816e+01 -4.1728386273734666e+00 -6.2995817369671494e+00 0 0 0
9185 4 4.2622399157453884e+01 -3.6206554207507682e+00 -6.4754659756158803e+00 0 0 0
8715 4 4.6272077845226768e+01 -4.1126531278879934e+00 -7.1262687694716620e+00 0 0 0
9693 4 4.5977599070520249e+01 -4.1935503565397179e+00 7.7407703069062670e+00 0 0 -1
10651 4 4.6942239213799205e+01 -3.3619073033691511e+00 -6.6669660831015074e+00 0 0 0
8818 4 4.8200720289096594e+01 -3.9053496846412807e+00 -7.0283402574641869e+00 0 0 0
10439 4 4.7272327416540229e+01 -3.9835672506311939e+00 -7.5467542780761123e+00 0 0 0
8714 4 4.9081153159873153e+01 -4.5071614264134956e+00 -7.4610203997508808e+00 0 0 0
10565 4 5.0065870105458210e+01 -4.7806140477842538e+00 -7.1675100220077805e+00 0 0 0
11111 5 5.1816455335212005e+01 -4.6039049837451396e+00 -6.7039553599265878e+00 0 0 0
10549 4 5.4515700898241604e+01 -4.3967961621107943e+00 -7.4382331015866336e+00 0 0 0
10815 4 5.5492098797829790e+01 -4.8492970204541157e+00 -7.2970617036712744e+00 0 0 0
10380 4 6.0340241632226586e+01 -4.4967517396238366e+00 -6.4752407298994923e+00 0 0 0
7507 4 6.5228452198837616e+01 -3.9354525296461080e+00 -7.6279824564869703e+00 0 0 0
7658 4 6.7937906423534528e+01 -4.2000398043008680e+00 -7.6729737256235184e+00 0 0 0
9192 4 7.0462339547410224e+01 -4.5697760004828618e+00 -6.8867442857533119e+00 0 0 0
10276 4 6.9817174199375458e+01 -4.7897161199670917e+00 -7.8023232130514621e+00 0 0 0
813 3 7.6218757517868639e+01 -4.7622031559045981e+00 -7.9370052598409968e+00 0 0 0
816 3 7.6218757517868639e+01 -3.9685026299204984e+00 -7.1433047338568976e+00 0 0 0
814 3 7.6988951020457662e+01 -3.9685026299204984e+00 -7.9370052598409968e+00 0 0 0
815 3 7.6988951020457662e+01 -4.7622031559045981e+00 -7.1433047338568976e+00 0 0 0
817 3 7.7759144523046686e+01 -4.7622031559045981e+00 -7.9370052598409968e+00 0 0 0
818 3 7.7759144523046686e+01 -3.9685026299204984e+00 -7.1433047338568976e+00 0 0 0
19 1 -7.7759144523046686e+01 -3.1748021039363987e+00 -7.9370052598409968e+00 0 0 0
20 1 -7.6988951020457662e+01 -2.3811015779522990e+00 -7.9370052598409968e+00 0 0 0
21 1 -7.6988951020457662e+01 -3.1748021039363987e+00 -7.1433047338568976e+00 0 0 0
22 1 -7.7759144523046686e+01 -2.3811015779522990e+00 -7.1433047338568976e+00 0 0 0
23 1 -7.6218757517868639e+01 -3.1748021039363987e+00 -7.9370052598409968e+00 0 0 0
24 1 -7.6218757517868639e+01 -2.3811015779522990e+00 -7.1433047338568976e+00 0 0 0
3405 4 -7.0454486819439850e+01 -2.4905364585924383e+00 -6.9373536976438235e+00 0 0 0
1653 4 -6.6756080714864481e+01 -2.7222858858059369e+00 -7.2371515444008292e+00 0 0 0
3740 4 -6.4739879598527409e+01 -2.5222718536825504e+00 -7.1285715300177976e+00 0 0 0
2413 4 -6.2357322266340432e+01 -3.4565251997628921e+00 -7.5369025901896993e+00 0 0 0
2688 4 -6.1357749000275064e+01 -3.2500508237512471e+00 7.8503282780413572e+00 0 0 -1
3326 4 -6.0664403102748608e+01 -3.6047792741230444e+00 -7.1930567056146790e+00 0 0 0
3576 4 -5.9103327977802493e+01 -2.5285502166147196e+00 -6.6734559328835275e+00 0 0 0
2194 4 -5.7544412215145009e+01 -2.2206636639503485e+00 -7.3623875210598673e+00 0 0 0
1649 4 -5.6695613028085759e+01 -2.7838285494803601e+00 -7.8768678310086147e+00 0 0 0
3519 4 -5.5533371881944710e+01 -3.1060485427517883e+00 -6.2429096395869630e+00 0 0 0
5733 4 -5.5846089554831011e+01 -3.3001655533350966e+00 -7.3022216891860205e+00 0 0 0
5159 4 -5.4968250567813989e+01 -2.6745855582901723e+00 -7.5395115573186393e+00 0 0 0
5817 4 -5.4475551402336862e+01 -3.0700896888476410e+00 -6.5883868282836735e+00 0 0 0
2142 4 -4.2916351752686637e+01 -2.8264901543032748e+00 7.8986704602716014e+00 0 0 -1
3197 4 -4.1760731315113233e+01 -2.5843947700573873e+00 -7.7558148437704508e+00 0 0 0
6142 4 -4.2310440036086696e+01 -3.3011412890891263e+00 -7.1570261487427356e+00 0 0 0
5685 4 -4.0634319609967719e+01 -2.7047327049598455e+00 -6.6721440190819497e+00 0 0 0
2002 4 -3.8333399139714018e+01 -3.0341657199029477e+00 -7.6619412136714855e+00 0 0 0
2006 4 -3.8365928214156732e+01 -3.3909831011829672e+00 -6.5977785142086764e+00 0 0 0
6012 4 -3.7630132286692636e+01 -2.5198807165087529e+00 -6.6710664588068012e+00 0 0 0
5778 4 -3.6041699570237775e+01 -2.7492350108235781e+00 -7.5441978374799330e+00 0 0 0
5477 4 -3.2143007925816867e+01 -3.4655497023091177e+00 -7.7749065175000016e+00 0 0 0
5635 4 -3.0919155974348381e+01 -3.0364707309418852e+00 -7.1427242772449198e+00 0 0 0
3915 4 -2.9256187122319492e+01 -2.8573418594394715e+00 -7.9080573756778358e+00 0 0 0
5784 4 -3.0050433784628112e+01 -2.3030380853282795e+00 -7.2896250557866447e+00 0 0 0
2769 4 -2.5564911848773686e+01 -2.5977361280237670e+00 -7.4342391634287353e+00 0 0 0
2358 4 -2.3143475930116242e+01 -2.6075429872865041e+00 -7.0786482806283715e+00 0 0 0
2839 4 -2.3988309378662013e+01 -2.1344879545620885e+00 -7.6240219179912359e+00 0 0 0
2074 4 -1.9092343918853658e+01 -2.6227244678637565e+00 -6.4820290442296109e+00 0 0 0
4704 4 -1.7269355063225369e+01 -3.2350535104599385e+00 -6.6867742545240150e+00 0 0 0
5782 4 -1.2524094468809118e+01 -2.8142196677194269e+00 -7.6582180919730600e+00 0 0 0
2536 4 -1.1525952781518013e+01 -2.7440297579411750e+00 -7.1232470448387266e+00 0 0 0
5165 4 -1.0517132880783489e+01 -2.5733196259970947e+00 -7.6497529669166004e+00 0 0 0
1415 4 -8.7423718530735393e+00 -2.9292079132061519e+00 -6.6356770009272106e+00 0 0 0
2205 4 -8.1964504475808599e+00 -2.7316765895946102e+00 -7.6378726844293627e+00 0 0 0
1929 4 -7.2080782262827867e+00 -2.2556346177651196e+00 -7.3739724511210261e+00 0 0 0
2286 4 -7.4555959622310777e+00 -3.1130645746314176e+00 -6.7648479094194585e+00 0 0 0
1900 4 -5.5172290109086681e+00 -3.0994576345063014e+00 -6.7976013632437793e+00 0 0 0
2784 4 -3.7008099712337623e+00 -3.0183695664450765e+00 -7.7062005543759895e+00 0 0 0
607 2 3.2755350373928341e-20 -3.1748021039363987e+00 -7.9370052598409968e+00 0 0 0
608 2 2.8081028534592712e-23 -2.3811015779522990e+00 -7.1433047338568976e+00 0 0 0
8405 4 3.6821553529132904e+00 -2.4788819838195910e+00 -6.8791169188403360e+00 0 0 0
11250 5 5.6181477541716438e+00 -3.0127828151264855e+00 -7.0345614657630220e+00 0 0 0
6653 4 7.0523791083626142e+00 -2.0996150896098813e+00 -7.7028831827977262e+00 0 0 0
8740 4 1.0086817326013763e+01 -2.3344740498218099e+00 -7.2447415752175459e+00 0 0 0
7413 4 1.2224865481172779e+01 -3.5017957193860023e+00 -7.5630976693825565e+00 0 0 0
7688 4 1.3236504191770111e+01 -3.2513332759077671e+00 7.8580046370972303e+00 0 0 -1
8326 4 1.3931844953312149e+01 -3.6239750745892425e+00 -7.1708574532905427e+00 0 0 0
8576 4 1.5146843292855184e+01 -2.5466338304262330e+00 -6.9767259899712748e+00 0 0 0
7194 4 1.7290534894432735e+01 -2.6352771079493600e+00 -7.3294744389077193e+00 0 0 0
6649 4 1.8069901971564320e+01 -2.8434783634733973e+00 7.8047428461917150e+00 0 0 -1
10733 4 1.8781624076390642e+01 -3.3250896833585615e+00 -7.2864721880810999e+00 0 0 0
8519 4 1.9086239472702921e+01 -3.1184169102403732e+00 -6.2326332937227358e+00 0 0 0