LAMMPS data file via write_data, version 3 Nov 2022, timestep = 1000000

1650 atoms
5 atom types
792 bonds
1 bond types
396 angles
1 angle types

-12.120000000000001 12.120000000000001 xlo xhi
-12.120000000000001 12.120000000000001 ylo yhi
-28.28 28.28 zlo zhi

Masses

1 15.9994
2 1.008
3 28.99
4 35.453
5 26.9815

Pair Coeffs # lj/cut/tip4p/long

1 0.185199 3.1589
2 0 0
3 0.0469 2.4299
4 0.15 4.0447
5 11.697 2.574

Bond Coeffs # harmonic

1 0 0.9572

Angle Coeffs # harmonic

1 0 104.52

Atoms # full

16 0 5 0 -7.830506011361923 -11.82133283945039 -15.95554760096629 0 0 0
27 0 5 0 -9.918552644577343 -9.773580421534843 -16.014631709512503 0 0 0
29 0 5 0 -5.863023384334865 -9.749401499339541 -15.955612286674272 0 0 0
28 0 5 0 -7.880786227314078 -7.775684012678201 -15.940678222004937 0 0 0
39 0 5 0 -9.9549150135223 -5.699612936077638 -16.071055865368805 0 0 0
41 0 5 0 -5.852275959895876 -5.664922673900431 -15.987551057476999 0 0 0
14 0 5 0 -11.890118582386165 -11.770954126204138 -16.06113391932629 0 0 0
26 0 5 0 -11.86857189439505 -7.6541207782584655 -15.9057442672692 0 0 0
40 0 5 0 -7.873317280230752 -3.6741903467513697 -16.000614913301316 0 0 0
51 0 5 0 -9.875083041797293 -1.6464534919244453 -16.040282268377226 0 0 0
53 0 5 0 -5.729616280189233 -1.6876592542620987 -16.064557413068467 0 0 0
38 0 5 0 -11.898326909101407 -3.6112856934980075 -15.993702867069066 0 0 0
42 0 5 0 -3.800194146876067 -3.763879103874664 -16.0820337091311 0 0 0
30 0 5 0 -3.868867774995801 -7.6920364073305265 -16.109307911196606 0 0 0
18 0 5 0 -3.813283599234374 -11.860036582498502 -15.999475213130317 0 0 0
20 0 5 0 0.09365923859152164 -11.74227960530258 -16.150407276368107 0 0 0
31 0 5 0 -1.894113001603494 -9.704065329594139 -16.01702048197215 0 0 0
33 0 5 0 2.1637113203756937 -9.849893551060129 -16.16358886469503 0 0 0
32 0 5 0 0.2140777210731044 -7.7844886221645835 -16.012519636144965 0 0 0
43 0 5 0 -1.8149290296602103 -5.756637472907302 -16.077478698016634 0 0 0
45 0 5 0 2.2456029224204372 -5.8587988210976345 -15.910186819830331 0 0 0
44 0 5 0 0.29852212504314407 -3.81229486702898 -16.01100224731159 0 0 0
55 0 5 0 -1.7239392957535113 -1.8228367720895278 -16.037988209366848 0 0 0
57 0 5 0 2.278078303857408 -1.7010636099852379 -16.07413675458711 0 0 0
37 0 5 0 10.443539017555883 -5.728045035644649 -15.92981630483789 -1 0 0
46 0 5 0 4.250622532088128 -3.719741792277794 -16.041133908419624 0 0 0
59 0 5 0 6.400854354916409 -1.6901809100823926 -15.989448667252585 0 0 0
48 0 5 0 8.359847031623929 -3.7123069769172248 -15.896409014864936 0 0 0
22 0 5 0 4.255990351017559 -11.724559940482305 -16.07578334955697 0 0 0
49 0 5 0 10.248682037789706 -1.645758863753309 -16.043195991750952 -1 0 0
47 0 5 0 6.300788885291228 -5.782744085416813 -16.026613753498623 0 0 0
24 0 5 0 8.369040395676071 -11.798396964520506 -16.038874976321488 0 0 0
34 0 5 0 4.32461141435295 -7.86819575277059 -16.073852177409645 0 0 0
36 0 5 0 8.4145195917341 -7.73892827111822 -16.14933372998939 0 0 0
25 0 5 0 10.444951790924053 -9.738339459869938 -16.04514214263988 -1 0 0
35 0 5 0 6.454593783380575 -9.743562458463154 -16.08411092139159 0 0 0
160 0 5 0 -7.887271359484325 -11.778675823157046 -11.976982562135525 0 0 0
171 0 5 0 -9.923491600911527 -9.745780999833062 -11.943399544095726 0 0 0
173 0 5 0 -5.811814166490486 -9.83281530937158 -12.005941013980893 0 0 0
172 0 5 0 -7.815375141717921 -7.698329494059698 -11.993014904616041 0 0 0
183 0 5 0 -9.870640578803853 -5.6705874939560115 -11.95539231706118 0 0 0
185 0 5 0 -5.834522533918797 -5.671877722812117 -11.865562424018137 0 0 0
158 0 5 0 -11.987693775367685 -11.805993673221334 -11.910203122420716 0 0 0
184 0 5 0 -7.918300298238849 -3.666290643026092 -12.080592263905938 0 0 0
195 0 5 0 -9.855289689153937 -1.687465000617289 -11.876011759716157 0 0 0
197 0 5 0 -5.817293504115503 -1.7531344446153838 -12.035353357691292 0 0 0
182 0 5 0 -11.905386002956549 -3.65226021870874 -11.927997904415898 0 0 0
170 0 5 0 -11.884691168861844 -7.6343486249444625 -11.912499697740635 0 0 0
805 125 1 -1.1128 -4.458384358126724 -11.900364536646022 -8.532421788403152 -333 -1 0
114 0 5 0 -5.865654244767888 -3.7003833099229144 -14.01085908289895 0 0 0
112 0 5 0 -9.871699813052704 -3.658617459841719 -14.048918790187765 0 0 0
102 0 5 0 -5.863444033135972 -7.728413441566328 -13.93369697630449 0 0 0
123 0 5 0 -7.87783337277526 -1.7183903816297372 -14.00261512448496 0 0 0
1723 431 1 -1.1128 -9.38810999694014 -11.933495358809237 -6.769093037967723 -334 2 0
1725 431 2 0.5564 -10.293577501246524 -11.754797167921593 -6.5152932622983935 -334 2 0
2118 562 2 0.5564 -5.967268533649483 -3.7518709003819186 -1.8186255728996883 -336 1 0
1025 198 2 0.5564 -8.077959928134643 -1.3125593315848971 -5.594947571032848 -329 -1 0
100 0 5 0 -9.87107271420386 -7.663410716800548 -14.002377514380473 0 0 0
1834 468 1 -1.1128 -7.1473177528471545 -9.603282466093042 -1.1035620552654724 -335 1 0
819 129 2 0.5564 -8.99876481227762 -6.08236412153844 -5.884600493481089 -336 0 0
1836 468 2 0.5564 -7.804938927019269 -8.909911842965052 -1.04879491056721 -335 1 0
1570 380 1 -1.1128 -6.314028666816107 -10.067065086316598 -5.562998294535092 -332 0 0
1024 198 1 -1.1128 -8.714011971265712 -1.8462291192229274 -6.071272554931091 -329 -1 0
2382 0 3 1 -8.656249487669054 -2.084465316174113 -8.78453865453289 -334 -1 0
756 108 2 0.5564 -7.978775522295368 -3.8235411846026457 -5.430176280398805 -332 2 0
536 35 2 0.5564 -7.030611965449092 -9.81819916883178 -8.670016587006273 -332 -1 0
792 120 2 0.5564 -8.7778227238 -7.924128817104083 -8.743570177514957 -332 0 0
468 12 2 0.5564 -5.578462757785833 -9.327993750590577 -1.9695763721106099 -331 -1 0
933 167 2 0.5564 -6.526743034785345 -7.623262642302942 -8.021655076785153 -331 -1 0
628 66 1 -1.1128 -5.742788112909702 -6.746878946575469 -3.527071161056719 -332 0 0
2116 562 1 -1.1128 -5.547874133282452 -3.6587810879855005 -2.6740023102982615 -336 1 0
931 167 1 -1.1128 -6.935234207935366 -7.8175756275412045 -8.865225000379121 -331 -1 0
932 167 2 0.5564 -7.012661770434555 -6.966359325372223 -9.29611497614401 -331 -1 0
754 108 1 -1.1128 -7.963888795116612 -4.725883288755055 -5.749220256658052 -332 2 0
755 108 2 0.5564 -7.55994341199491 -4.66765400599797 -6.615057400356496 -332 2 0
2401 0 4 -1 -7.817392272544384 -4.664239802509756 -8.901383837011679 -333 0 0
2393 0 4 -1 -6.447176155939667 -1.1612798031822562 -8.817845805619992 -339 0 0
630 66 2 0.5564 -6.62077720960544 -6.374521780744318 -3.6089447891995 -332 0 0
535 35 1 -1.1128 -6.9685986321359135 -10.714476098860452 -8.339753811370723 -332 -1 0
537 35 2 0.5564 -6.953687207515561 -10.618840024773505 -7.387459511021425 -332 -1 0
1571 380 2 0.5564 -6.988065661700321 -10.365279102712156 -4.952289973584696 -332 0 0
950 173 2 0.5564 -9.695887637204352 -3.2723148924889194 -2.817819266684436 -333 0 0
1724 431 2 0.5564 -8.861342613132251 -11.528169084911642 -6.080276848939221 -334 2 0
951 173 2 0.5564 -9.407811876738034 -1.8512670693654423 -3.25316797539329 -333 0 0
949 173 1 -1.1128 -9.063694935507314 -2.5615035360183533 -2.7115267222047685 -333 0 0
1138 236 1 -1.1128 -8.954818161891547 -7.144162194306244 -0.25903849312562216 -333 -1 0
1855 475 1 -1.1128 -6.747312658835162 -5.5555074546213605 -0.811891926696104 -332 0 0
493 21 1 -1.1128 -8.565182051958464 -10.675477261450029 -4.124853789123333 -330 -1 0
97 0 5 0 -11.870533741683994 -9.782613034100716 -13.996739460511034 0 0 0
1572 380 2 0.5564 -5.665904061158866 -10.771448121272151 -5.567768548464418 -332 0 0
816 128 2 0.5564 -7.671053823047514 -11.252307002551282 -1.5774792635906363 -331 2 0
495 21 2 0.5564 -9.323012292557431 -10.156652659289177 -3.8551658050795146 -330 -1 0
111 0 5 0 -7.88320024974347 -5.655586765405348 -13.995982764688684 0 0 0
2281 617 1 -1.1128 -12.024622857969899 -11.439653490988732 -3.722605397421051 -332 -1 0
1921 497 1 -1.1128 -10.203103970620102 -2.5876822165059927 -0.16118127400610305 -330 1 0
1140 236 2 0.5564 -9.841688376972352 -6.8309326443431955 -0.43671470689733455 -333 -1 0
1760 443 2 0.5564 -11.006739690641488 -10.189034281255367 -2.809248017956491 -331 -2 0
800 123 2 0.5564 -11.54248855185789 -1.1547927931216255 -5.211030814188712 -334 0 0
801 123 2 0.5564 -11.44313252230727 -2.1516282370440885 -4.075978783799877 -334 0 0
799 123 1 -1.1128 -10.949194982741716 -1.4676710942911042 -4.528146637712806 -334 0 0
2310 626 2 0.5564 -11.66296784217166 -3.5874716390741104 -6.965613317522412 -331 -1 0
1499 356 2 0.5564 -11.422540869133258 -10.44182332711466 -8.520534264079497 -330 0 0
1670 413 2 0.5564 -11.86015474820668 -11.15822618610958 -0.6297689423617173 -331 1 0
1026 198 2 0.5564 -9.49132791089986 -1.848782771819021 -5.512711841654776 -329 -1 0
2377 0 3 1 -10.139607028325134 -5.405579115168262 -8.695444404360769 -337 0 0
817 129 1 -1.1128 -9.709609046007582 -6.713469410128018 -5.997062472509863 -336 0 0
1498 356 1 -1.1128 -11.712200459441332 -9.78187013599302 -9.15045036904936 -330 0 0
1500 356 2 0.5564 -11.092832142692158 -9.059926025136484 -9.043558288616556 -330 0 0
1375 315 1 -1.1128 -11.110601422796229 -4.478982549576628 -3.726074305417312 -331 0 0
791 120 2 0.5564 -9.751414745718552 -7.647706633663322 -7.617692101525049 -332 0 0
790 120 1 -1.1128 -9.705305779854855 -7.767333487353305 -8.56626708211985 -332 0 0
2117 562 2 0.5564 -6.211678360162201 -3.2408298608124784 -3.2225468598861124 -336 1 0
1857 475 2 0.5564 -7.450066564340033 -6.198418539569834 -0.7168982556579246 -332 0 0
1287 285 2 0.5564 -10.676763277654942 -9.656194538057127 -0.6823728469053735 -332 1 0
2023 531 1 -1.1128 -11.949427214819373 -10.979254171054631 -6.3756458846679775 -331 1 0
1759 443 1 -1.1128 -10.55714220241719 -9.406650348287211 -2.4899279190702974 -331 -2 0
1761 443 2 0.5564 -10.88762238023757 -8.697860256781276 -3.041857447200209 -331 -2 0
2025 531 2 0.5564 -11.805373129504678 -11.026747788970148 -5.43053867666316 -331 1 0
665 78 2 0.5564 -12.068001567793607 -7.505819761532362 -6.938373261302443 -332 1 0
1960 510 1 -1.1128 -11.72288807854129 -7.3099387721751246 -3.795430835991146 -333 0 0
1888 486 1 -1.1128 -11.535348355514746 -6.183583248646657 -0.25468379630899207 -333 0 0
2383 0 3 1 -12.054112467200671 -0.43497678646866017 -8.567829447144538 -338 0 0
1961 510 2 0.5564 -11.979754140665207 -7.62266824352658 -4.662868067275939 -333 0 0
2395 0 4 -1 -10.963158172458385 -2.9265890305722464 -8.824521347334686 -339 0 0
818 129 2 0.5564 -9.941572159171548 -6.974974150165641 -5.105974542913313 -336 0 0
1377 315 2 0.5564 -11.133603210562791 -5.382485767431926 -3.4108209054958456 -331 0 0
1376 315 2 0.5564 -11.308921926184064 -4.545596026760888 -4.660131313511089 -331 0 0
88 0 5 0 -9.904204876440565 -11.816145973050771 -13.942640708248105 0 0 0
467 12 2 0.5564 -5.15829247150976 -8.292122286366583 -2.9905170095942664 -331 -1 0
629 66 2 0.5564 -5.426262635923661 -6.431343922729661 -2.680617469694085 -332 0 0
869 146 2 0.5564 -5.47466265894311 -4.8302470700893245 -9.098109050753486 -334 1 0
466 12 1 -1.1128 -4.8084516636819785 -8.883348226804301 -2.323964785397202 -331 -1 0
1987 519 1 -1.1128 -4.513962243796669 -7.178123772068611 -0.28341506633177627 -336 2 0
2359 643 1 -1.1128 -4.31284098788133 -5.204605495629582 -5.576341238581184 -333 1 0
824 131 2 0.5564 -4.9508922190617906 -6.618153925623437 -6.054316038874898 -329 -1 0
823 131 1 -1.1128 -5.1379296363176605 -7.4023291463224 -6.57037996403369 -329 -1 0
1996 522 1 -1.1128 -5.457704771096845 -2.2847328111955303 -5.581627368425524 -333 -1 0
2384 0 3 1 -4.6748568801188695 -2.495454122747749 -7.7862470575329565 -338 0 0
1997 522 2 0.5564 -5.852895278730152 -1.5431051940959164 -5.123326897756533 -333 -1 0
825 131 2 0.5564 -5.50918526258697 -8.02079780906738 -5.9411790440815615 -329 -1 0
109 0 5 0 -11.853870235194247 -5.57436395767698 -13.973635157593916 0 0 0
2360 643 2 0.5564 -5.020053812679851 -4.7086829692490175 -5.163871846215935 -333 1 0
1989 519 2 0.5564 -4.48897124334396 -7.858877641768564 -0.9558598023094776 -336 2 0
1998 522 2 0.5564 -4.590708729622694 -2.376641233519406 -5.18651811596142 -333 -1 0
868 146 1 -1.1128 -4.648984595719587 -4.38303618942015 -8.91242118053072 -334 1 0
1362 310 2 0.5564 -4.08865447120384 -1.0199012931842135 -9.655645219648918 -332 -1 0
806 125 2 0.5564 -5.242275568029184 -11.351383918162409 -8.551275623986486 -333 -1 0
99 0 5 0 -7.909079511813623 -9.788483410097765 -13.94195199240152 0 0 0
1856 475 2 0.5564 -5.942173106221697 -6.063728140408938 -0.7133621574445328 -332 0 0
90 0 5 0 -5.8421726920567485 -11.777756852938465 -13.993418978477063 0 0 0
494 21 2 0.5564 -8.348779643651808 -11.202120818271057 -3.3554042750545547 -330 -1 0
1923 497 2 0.5564 -9.808684764701288 -2.582838743439482 -1.0333332951160499 -330 1 0
121 0 5 0 -11.97278502734548 -1.6146385940437091 -14.019904654965828 0 0 0
1835 468 2 0.5564 -7.0140157450733955 -9.879782451002681 -0.19691161648459143 -335 1 0
516 28 2 0.5564 -10.845091932446792 -0.9508048913014374 -0.10589095086251335 -331 0 0
1647 405 2 0.5564 1.2724956785491703 -2.518742901236467 -0.496430068701177 -331 0 0
1611 393 2 0.5564 2.657167419528337 -11.009751024426183 -5.667801148074347 -335 1 0
1350 306 2 0.5564 3.256032359122409 -10.247459444368232 -2.7055180661721026 -332 -3 0
669 79 2 0.5564 2.5325777357475507 -0.5758968374493163 -9.196422762436125 -333 0 0
2285 618 2 0.5564 3.2058152686671053 -7.527547553220986 -3.5458945822913597 -334 1 0
2286 618 2 0.5564 2.854300594259132 -7.155970807855712 -4.970768359529662 -334 1 0
1261 277 1 -1.1128 2.396682177591401 -6.446419853119519 -9.089245568662543 -335 0 0
2273 614 2 0.5564 3.851570724570227 -2.0100658358421035 -7.356985846403137 -335 -2 0
667 79 1 -1.1128 2.9135390675654387 -1.4362844949431905 -9.020846526840131 -333 0 0
668 79 2 0.5564 3.8069492104292233 -1.3767439288679493 -9.359255084562717 -333 0 0
2284 618 1 -1.1128 3.3828202090785626 -6.87526803947869 -4.223707512551974 -334 1 0
92 0 5 0 -1.8261505284457118 -11.77827623619136 -14.053557473784766 0 0 0
1892 487 2 0.5564 3.544826009862973 -8.681938049116932 -1.2590775532772611 -331 -2 0
1604 391 2 0.5564 -1.9514028836487587 -3.058676063906036 -0.6468759400042939 -331 2 0
106 0 5 0 2.302233711695653 -7.927341294264175 -14.049076697560983 0 0 0
483 17 2 0.5564 1.6915018936042925 -3.8105543428985027 -7.963909878374398 -330 0 0
1262 277 2 0.5564 2.212706159345598 -5.571428715040375 -9.430965318000643 -335 0 0
984 184 2 0.5564 2.818509181378453 -2.13119194713698 -4.068579061794777 -331 1 0
481 17 1 -1.1128 1.5701765910766525 -3.7924303606495333 -8.913217770188393 -330 0 0
482 17 2 0.5564 1.793631798016079 -2.8968448536495797 -9.166656919204732 -330 0 0
1348 306 1 -1.1128 2.91713822243907 -9.353316817366041 -2.7490876157109096 -332 -3 0
125 0 5 0 -3.7168955345797 -1.7946349625144469 -14.028151828535398 0 0 0
118 0 5 0 2.317132030544006 -3.6943259200366483 -13.985700756566988 0 0 0
1609 393 1 -1.1128 3.5564671278134297 -11.312600190943407 -5.542240944748339 -335 1 0
101 0 5 0 -3.772616323518805 -9.726050531024983 -13.98560945789271 0 0 0
1506 358 2 0.5564 -4.028380622242693 -2.2134414414576407 -3.2554060846909567 -331 -1 0
104 0 5 0 -1.805087134057642 -7.717552895141678 -14.044196065673276 0 0 0
115 0 5 0 0.2134698129598942 -5.787604246156573 -14.034113709414298 0 0 0
116 0 5 0 -1.6781506048647339 -3.8153429182581013 -13.969725214376249 0 0 0
127 0 5 0 0.3169127897161785 -1.7336208811024616 -14.068900155932461 0 0 0
174 0 5 0 -3.8802523947242125 -7.681010369663252 -11.854058895196616 0 0 0
186 0 5 0 -3.777370504781473 -3.7477710586219586 -12.026054450680817 0 0 0
162 0 5 0 -3.766756441186527 -11.797386837762136 -12.04149818299949 0 0 0
164 0 5 0 0.1979049128513805 -11.76866845825538 -11.989846083836465 0 0 0
175 0 5 0 -1.8529803881270799 -9.74714638775219 -11.995856708786544 0 0 0
177 0 5 0 2.3075440439391177 -9.82676341487786 -11.934058009101143 0 0 0
176 0 5 0 0.30315917159803696 -7.786313053991198 -11.934412177592558 0 0 0
187 0 5 0 -1.7473865873926515 -5.767759468089061 -12.047762108301445 0 0 0
189 0 5 0 2.2480419206162585 -5.781683185543507 -12.117756197291977 0 0 0
188 0 5 0 0.336552832852785 -3.727428391680116 -11.985184715550176 0 0 0
199 0 5 0 -1.7494388753989223 -1.7236478428381508 -12.054401877705814 0 0 0
201 0 5 0 2.373926001611953 -1.7645813172698683 -12.0379159856287 0 0 0
103 0 5 0 0.23821587616179737 -9.735755771381521 -14.009723292221668 0 0 0
94 0 5 0 2.1942448329678106 -11.708506582639302 -14.033006615788763 0 0 0
1398 322 2 0.5564 0.42857358377276067 -11.798388067671114 -0.23482240982271974 -330 0 0
1721 430 2 0.5564 -1.6023263706743762 -0.47187321125161746 -0.4646969201466573 -334 0 0
1720 430 1 -1.1128 -1.9626882170080806 -1.0278832899248067 -1.1555154063386708 -334 0 0
977 182 2 0.5564 -1.8769627704100396 -9.798459600111864 -8.832233342282947 -330 1 0
1019 196 2 0.5564 -3.0883674251766497 -6.380217554207688 -1.1097159138781907 -335 -1 0
978 182 2 0.5564 -3.2065584774496267 -9.07455958037346 -8.838548475256786 -330 1 0
1505 358 2 0.5564 -2.703611558690098 -2.716591589741771 -3.788049133210212 -331 -1 0
1020 196 2 0.5564 -2.137194306699285 -5.202998441906495 -1.0734025507675753 -335 -1 0
1018 196 1 -1.1128 -2.314900013586994 -6.018394032278252 -1.5422143945377649 -335 -1 0
1501 357 1 -1.1128 -2.8037382605380317 -9.550864289279826 -4.624553028389218 -333 0 0
807 125 2 0.5564 -3.749022135491977 -11.315018865128538 -8.79779207561006 -333 -1 0
1247 272 2 0.5564 -3.0049672669717893 -0.28228126895936856 -3.8500346763939906 -333 0 0
2361 643 2 0.5564 -3.6846253218418843 -5.358774485683684 -4.870778346121873 -333 1 0
870 146 2 0.5564 -3.976656945340656 -5.046738174632801 -9.066419978400887 -334 1 0
450 6 2 0.5564 -3.3133637979105823 -6.291977961450779 -7.949159898061623 -333 -1 0
1360 310 1 -1.1128 -3.302680988973622 -1.0994271935626088 -9.115148584215843 -332 -1 0
1779 449 2 0.5564 -1.6360429215262633 -8.628931346480199 -7.254412283052802 -331 1 0
1645 405 1 -1.1128 1.1483770499679533 -3.012061629245133 -1.307271854744218 -331 0 0
1504 358 1 -1.1128 -3.3549935788963032 -2.0257624095961604 -3.90927553507827 -331 -1 0
1232 267 2 0.5564 -0.9228868780809973 -7.003481028230433 -2.358144747686695 -332 0 0
1060 210 1 -1.1128 -2.125017994892337 -4.612118794356743 -3.908805023027824 -331 0 0
2291 620 2 0.5564 -0.6099674334259828 -6.922152342871592 -5.884814713228411 -330 0 0
1722 430 2 0.5564 -2.7321143941147126 -0.5526700601743505 -1.4691574722638008 -334 0 0
1061 210 2 0.5564 -1.3691475200469299 -5.103654502007477 -4.230199546693326 -331 0 0
1161 243 2 0.5564 -0.10599049022238005 -4.23182863182988 -8.756146457602396 -332 1 0
763 111 1 -1.1128 -2.7689479256503127 -3.391784002188198 -6.824820761005618 -332 0 0
1062 210 2 0.5564 -2.306685516547882 -4.987505240916729 -3.04723050085506 -331 0 0
976 182 1 -1.1128 -2.766004915953821 -9.845273770511485 -8.480584553321245 -330 1 0
1503 357 2 0.5564 -3.3508822522891544 -9.468659478219593 -3.843465397116037 -333 0 0
1777 449 1 -1.1128 -1.211373089110397 -8.408164895343825 -6.425470328160497 -331 1 0
449 6 2 0.5564 -2.155813419094355 -5.674452491818002 -8.704560920296386 -333 -1 0
764 111 2 0.5564 -3.2458666025680984 -4.138939243751935 -6.463529289882966 -332 0 0
1160 243 2 0.5564 -0.7234784033426314 -5.101046198590221 -7.6814060926780305 -332 1 0
1159 243 1 -1.1128 -0.943265368542803 -4.588265655613665 -8.459213614579882 -332 1 0
1778 449 2 0.5564 -1.6692455441718015 -8.937786036517679 -5.77272324645934 -331 1 0
448 6 1 -1.1128 -2.71561540587212 -6.450496269548989 -8.679771687021436 -333 -1 0
1610 393 2 0.5564 3.6281572466057916 -11.467785514706145 -4.600428045128809 -335 1 0
446 5 2 0.5564 0.6149745322447475 -10.986480318281897 -8.69086785347837 -332 1 0
1646 405 2 0.5564 1.4166723212459278 -2.40767932741246 -1.99935339131331 -331 0 0
1502 357 2 0.5564 -3.418724766738757 -9.760821315305789 -5.327357372339465 -333 0 0
445 5 1 -1.1128 -0.016631393444620057 -10.285584326515472 -8.529426343727309 -332 1 0
447 5 2 0.5564 0.07826522372794242 -10.086894824172965 -7.597895276769636 -332 1 0
766 112 1 -1.1128 -0.5036367006188176 -1.5428154113141999 -7.245846361699883 -337 1 0
1964 511 2 0.5564 -0.5925809780925435 -10.196459440802164 -3.4473728510751296 -335 2 0
1965 511 2 0.5564 -0.013090764670687705 -8.800700084129401 -3.3582636712240492 -335 2 0
2292 620 2 0.5564 0.17308593972855602 -6.4901432079612675 -4.663305334492492 -330 0 0
1125 231 2 0.5564 0.0872932216004878 -8.40745099117794 -9.036314689713608 -331 0 0
1123 231 1 -1.1128 0.035210122073613626 -7.458748501514112 -8.920192673997073 -331 0 0
1124 231 2 0.5564 -0.8238281937834837 -7.221052920874903 -9.269153531766818 -331 0 0
1743 437 2 0.5564 0.7549407665544607 -4.28942413775486 -5.686276542459455 -334 0 0
844 138 1 -1.1128 1.2145722321960681 -10.096933113030914 -6.067476417327286 -333 0 0
846 138 2 0.5564 1.530828148046123 -9.210948962476401 -6.244254198730799 -333 0 0
649 73 1 -1.1128 1.4690624521626225 -5.7921529050927445 -0.782118911102169 -334 2 0
651 73 2 0.5564 1.3246148016366712 -4.86004933570384 -0.9450511032070135 -334 2 0
650 73 2 0.5564 2.3113795590561415 -5.980409570687732 -1.1960138646609062 -334 2 0
1994 521 2 0.5564 1.2878537790425089 -7.143444550020971 -6.362151123569985 -332 -3 0
983 184 2 0.5564 1.900489481431446 -0.9523872079493267 -3.824541336776216 -331 1 0
1742 437 2 0.5564 1.5074433698716827 -2.9942379272482995 -5.466902537772547 -334 0 0
768 112 2 0.5564 -1.3980843904306757 -1.8782173841749665 -7.306552560288057 -337 1 0
982 184 1 -1.1128 1.8936288184276553 -1.8888973122817347 -4.022363785149776 -331 1 0
1263 277 2 0.5564 1.577679035798131 -6.927465328306194 -9.207792439123049 -335 0 0
1741 437 1 -1.1128 1.0980993313658205 -3.5255104032073143 -6.149855166158711 -334 0 0
1995 521 2 0.5564 2.2823518279813975 -7.183931969534533 -7.502867268161115 -332 -3 0
1993 521 1 -1.1128 2.1376177403029457 -7.505631393502877 -6.613038211143764 -332 -3 0
2290 620 1 -1.1128 -0.07250211780830185 -6.2071179635078115 -5.544110516623139 -330 0 0
765 111 2 0.5564 -2.154417738734488 -3.778274059437495 -7.4486968416523665 -332 0 0
1233 267 2 0.5564 0.5305492634451998 -6.666161742942763 -2.101956032436789 -332 0 0
767 112 2 0.5564 -0.03322513181252296 -2.2042407927179357 -6.738432016466964 -337 1 0
1349 306 2 0.5564 1.9714922530777523 -9.459837574428548 -2.852162715455003 -332 -3 0
1963 511 1 -1.1128 0.234587261685685 -9.716371927113242 -3.486445030103278 -335 2 0
845 138 2 0.5564 0.8024690697136196 -10.037139761773021 -5.20560717454543 -333 0 0
1231 267 1 -1.1128 -0.06994394988655284 -6.953686435370347 -2.789688745032544 -332 0 0
592 54 1 -1.1128 -1.408964694356562 -11.876133746422662 -2.7522858401422092 -333 0 0
113 0 5 0 -3.800039290203483 -5.792845901306174 -14.030149807162308 0 0 0
1361 310 2 0.5564 -3.10092482345844 -0.20166285837048778 -8.851423139628329 -332 -1 0
1603 391 1 -1.1128 -2.351584868189775 -3.7111830722139754 -0.07213566139587098 -331 2 0
1891 487 1 -1.1128 3.7517890208259366 -8.530268844328026 -0.3369101271506824 -331 -2 0
594 54 2 0.5564 -2.2607795676496085 -12.018292988256652 -2.339463708325408 -333 0 0
593 54 2 0.5564 -0.7745623986255172 -12.026133805183813 -2.051374490554639 -333 0 0
1396 322 1 -1.1128 1.167303581516691 -12.101311639020988 -0.7627825396603157 -330 0 0
497 22 2 0.5564 6.2260138396139695 -10.443663596902764 -0.09343284867897267 -331 -1 0
1195 255 1 -1.1128 7.056152888454889 -4.61443152566403 -1.3700271742837742 -332 1 0
2282 617 2 0.5564 11.273959742359388 -11.365779275473647 -3.5661051926716487 -333 -1 0
1406 325 2 0.5564 5.791882141954637 -0.03464748325020886 -9.391581259647703 -335 0 0
496 22 1 -1.1128 6.262514171960829 -9.73670333606877 -0.7377203187330674 -331 -1 0
110 0 5 0 10.288914648176357 -3.675459013997115 -13.956821445733903 -1 0 0
107 0 5 0 8.429330437721246 -9.785053266283027 -14.08765768756461 0 0 0
1272 280 2 0.5564 8.968607380011969 -10.228613637399572 -9.66758881322916 -334 1 0
679 83 1 -1.1128 5.851340659964965 -9.923544649650223 -4.850294146784934 -334 0 0
619 63 1 -1.1128 4.622614438641508 -1.8686753531810523 -4.260489190160201 -333 -1 0
2274 614 2 0.5564 4.435074892895753 -3.2400167736663743 -6.69468712606484 -335 -2 0
2272 614 1 -1.1128 4.634589311361427 -2.3284260175831877 -6.9078216504866425 -335 -2 0
884 151 2 0.5564 7.744685724718284 -4.827809997086905 -9.387628964700422 -334 -1 0
2353 641 1 -1.1128 7.112354041061519 -8.321366325289738 -8.841258209793894 -333 -2 0
2354 641 2 0.5564 7.3279008268781824 -8.117168935749033 -7.931269189906748 -333 -2 0
812 127 2 0.5564 4.342789981569142 -5.6543833933002015 -5.714842576646307 -332 -2 0
656 75 2 0.5564 5.942145179190171 -6.879420721208107 -9.052490156104723 -333 -1 0
655 75 1 -1.1128 5.37572527499137 -6.182890264128007 -8.720448735176575 -333 -1 0
621 63 2 0.5564 5.534209076619577 -2.0392514703310645 -4.023546442820078 -333 -1 0
2151 573 2 0.5564 5.18087201105885 -5.531978457983731 -1.3522657011324704 -333 1 0
2150 573 2 0.5564 4.32667914028546 -5.543236705228981 -2.6021152339996654 -333 1 0
657 75 2 0.5564 4.501895559911206 -6.413265367351045 -9.035997118903161 -333 -1 0
620 63 2 0.5564 4.572656834992263 -2.0830189157962784 -5.192042671432735 -333 -1 0
2315 628 2 0.5564 7.0745573744169405 -9.168224489373095 -3.434700216061097 -332 1 0
1312 294 1 -1.1128 4.464791892716775 -2.0567393848784294 -0.7232245268837207 -331 -2 0
1586 385 2 0.5564 7.526238216901913 -8.65849794130994 -5.647162699327286 -331 0 0
2355 641 2 0.5564 6.485039615414827 -9.042029791953404 -8.783398438937128 -333 -2 0
119 0 5 0 8.299891262572364 -5.757717110383809 -14.045172980117124 0 0 0
98 0 5 0 10.322188980512179 -7.665202900936521 -14.015240580735723 -1 0 0
2316 628 2 0.5564 7.575308968166514 -9.32393168707855 -2.014525472664553 -332 1 0
811 127 1 -1.1128 4.856714315670256 -5.070101552897861 -6.27226290236558 -332 -2 0
813 127 2 0.5564 5.142014039843354 -5.622341942542344 -7.000188918640469 -332 -2 0
2314 628 1 -1.1128 7.8598537259145225 -9.078346524157414 -2.8948384285423425 -332 1 0
1407 325 2 0.5564 5.97613724231207 -1.0642933953904294 -8.297152078830624 -335 0 0
1405 325 1 -1.1128 5.871667972965883 -0.9771295841437561 -9.244634188677182 -335 0 0
673 81 1 -1.1128 7.660486622257842 -2.445646916265367 -3.3451784730525898 -333 0 0
674 81 2 0.5564 7.758118248677869 -3.03167588885301 -4.095693429353054 -333 0 0
885 151 2 0.5564 6.298424139735661 -4.426182359378164 -9.190358091164383 -334 -1 0
883 151 1 -1.1128 7.152930915920145 -4.077577597112763 -9.44435304356259 -334 -1 0
1314 294 2 0.5564 4.367678373142328 -2.3350778834991215 -1.6338990613843418 -331 -2 0
1342 304 1 -1.1128 4.093965460411463 -11.870671999036873 -2.6043350464427872 -332 -2 0
1196 255 2 0.5564 7.276607304523935 -4.1474269081027915 -2.1759688609336743 -332 1 0
609 59 2 0.5564 10.076251736129871 -0.22848703412238486 -3.370338117096108 -334 -1 0
2149 573 1 -1.1128 4.270058582992789 -5.537142369996598 -1.6466101380343363 -333 1 0
1197 255 2 0.5564 6.962096453582422 -3.925904493620929 -0.7117599656221424 -332 1 0
1270 280 1 -1.1128 8.863282928271119 -11.022267545286512 -9.142942212537372 -334 1 0
1665 411 2 0.5564 11.719407776951043 -11.602226378947105 -9.485705064088188 -333 1 0
1532 367 2 0.5564 9.831984806332036 -11.130822125192983 -0.7061569497151968 -338 0 0
1237 269 1 -1.1128 9.515682045770909 -11.19795499122627 -3.2275127625285625 -333 2 0
675 81 2 0.5564 8.527025509089377 -2.055311518252461 -3.231175328987903 -333 0 0
1585 385 1 -1.1128 8.319516764677502 -8.680110359127998 -6.182382483774831 -331 0 0
607 59 1 -1.1128 10.038331277207714 -1.1745565790164727 -3.2298148132750306 -334 -1 0
1956 508 2 0.5564 10.8097824803478 -8.938402946793385 -9.116434296016497 -331 1 0
2293 621 1 -1.1128 7.515924771269432 -4.446812908033519 -5.267413257277823 -333 -2 0
659 76 2 0.5564 7.270096469906085 -2.9922922050073084 -6.806680772599396 -333 -1 0
660 76 2 0.5564 7.450226121179675 -1.5134176992537285 -6.5376433261085785 -333 -1 0
658 76 1 -1.1128 7.775317486896686 -2.2283491938920896 -7.084829266492582 -333 -1 0
1109 226 2 0.5564 9.491141792007415 -6.812831077362062 -4.394387463497863 -330 0 0
2294 621 2 0.5564 8.227790026418855 -5.050685872249366 -5.055679995251388 -333 -2 0
2370 646 2 0.5564 9.221390066325206 -5.866240101946551 -7.538430407897458 -331 -1 0
1110 226 2 0.5564 10.356712263531243 -6.210517659299426 -5.480623332908766 -330 0 0
2120 563 2 0.5564 9.242456090612347 -7.838101005794394 -2.4844609000755735 -335 1 0
1344 304 2 0.5564 5.017963898984597 -11.98939987177341 -2.8242899581899836 -332 -2 0
2390 0 3 1 8.194752697780363 -1.9095461580618676 -9.361127559318776 -333 0 0
2119 563 1 -1.1128 9.91849242149998 -7.192218456297901 -2.6894891385237405 -335 1 0
2369 646 2 0.5564 9.346380148167833 -6.789096983336708 -8.732000074622132 -331 -1 0
2368 646 1 -1.1128 9.148109601653118 -5.8837572521905 -8.492660865013839 -331 -1 0
2121 563 2 0.5564 9.859783824551242 -6.550434321069938 -1.9817476622861003 -335 1 0
1108 226 1 -1.1128 9.455224884022696 -6.4669615669769565 -5.286192749772463 -330 0 0
441 3 2 0.5564 9.37598880239498 -2.261012193623062 -6.407284920727663 -333 -3 0
440 3 2 0.5564 9.96601033068864 -1.984452322736349 -5.040794664208113 -333 -3 0
1238 269 2 0.5564 8.901302494991148 -10.59309836532402 -2.8116921537367854 -333 2 0
1587 385 2 0.5564 8.825218370927885 -7.920768729294108 -5.892717859105022 -331 0 0
2295 621 2 0.5564 6.8350927554366 -5.002170837691792 -5.647240067861565 -333 -2 0
1730 433 2 0.5564 8.774037053042514 -1.5145265446676923 -0.41513341170501755 -330 -1 0
1814 461 2 0.5564 8.790108864867602 -4.73689994967318 -1.2244997139298512 -333 -1 0
680 83 2 0.5564 4.986190585586915 -10.080700741177035 -5.228502664238423 -334 0 0
1954 508 1 -1.1128 10.089858657931496 -8.3817660116653 -8.81960731678136 -331 1 0
1955 508 2 0.5564 9.488129771354695 -8.982068405743311 -8.37940104483299 -331 1 0
1815 461 2 0.5564 10.064429893836145 -4.4054790296815955 -0.477397272320324 -333 -1 0
608 59 2 0.5564 10.118414878195438 -1.2797627781264642 -2.2817901358974066 -334 -1 0