LAMMPS (23 Jun 2022 - Update 4)
Lattice spacing in x,y,z = 10 10 10
Created orthogonal box = (-30 -20 -20) to (30 20 20)
  2 by 2 by 2 MPI processor grid
Read molecule template tolmol:
  1 molecules
  0 fragments
  15 atoms with max type 5
  18 bonds with max type 6
  24 angles with max type 5
  30 dihedrals with max type 3
  6 impropers with max type 1
Read molecule template h2omol:
  1 molecules
  0 fragments
  3 atoms with max type 2
  2 bonds with max type 1
  1 angles with max type 1
  0 dihedrals with max type 0
  0 impropers with max type 0
Created 1440 atoms
  using lattice units in orthogonal box = (-30 -20 -20) to (30 20 20)
  create_atoms CPU = 0.004 seconds
Created 1800 atoms
  using lattice units in orthogonal box = (-30 -20 -20) to (30 20 20)
  create_atoms CPU = 0.008 seconds
1800 atoms in group H2O
1440 atoms in group tol
Finding SHAKE clusters ...
       0 = # of size 2 clusters
       0 = # of size 3 clusters
       0 = # of size 4 clusters
     600 = # of frozen angles
  find clusters CPU = 0.001 seconds
PPPM initialization ...
  extracting TIP4P info from pair style
  using 12-bit tables for long-range coulomb (../kspace.cpp:342)
  G vector (1/distance) = 0.24377841
  grid = 36 25 25
  stencil order = 5
  estimated absolute RMS force accuracy = 0.0034641795
  estimated relative force accuracy = 1.0432274e-05
  using double precision KISS FFT
  3d grid and FFT values/proc = 9025 3600
WARNING: Communication cutoff 0 is shorter than a bond length based estimate of 5.42. This may lead to errors. (../comm.cpp:727)
WARNING: Increasing communication cutoff to 15.1118 for TIP4P pair style (../pair_lj_cut_tip4p_long.cpp:484)
Generated 10 of 10 mixed pair_coeff terms from geometric mixing rule
WARNING: Should not use fix nve/limit with fix shake or fix rattle (../fix_nve_limit.cpp:78)
Neighbor list info ...
  update every 1 steps, delay 10 steps, check yes
  max neighbors/atom: 2000, page size: 100000
  master list distance cutoff = 14.3092
  ghost atom cutoff = 15.1118
  binsize = 7.1546, bins = 9 6 6
  1 neighbor lists, perpetual/occasional/extra = 1 0 0
  (1) pair lj/cut/tip4p/long, perpetual
      attributes: half, newton on
      pair build: half/bin/newton
      stencil: half/bin/3d
      bin: standard
Setting up Verlet run ...
  Unit style    : real
  Current step  : 0
  Time step     : 1
Per MPI rank memory allocation (min/avg/max) = 30.76 | 30.83 | 31.22 Mbytes
   Step          Temp          E_pair         E_mol          TotEng         Press     
         0   0              24508.603      33.133586      24541.736      81732.564    
       500   341.35218     -5529.4744      535.74227     -2308.5338     -6.7721442    
      1000   317.72637     -6143.9665      496.19551     -3148.4217      347.35979    
Loop time of 3.95026 on 8 procs for 1000 steps with 3240 atoms

Performance: 21.872 ns/day, 1.097 hours/ns, 253.148 timesteps/s
97.2% CPU use with 8 MPI tasks x no OpenMP threads

MPI task timing breakdown:
Section |  min time  |  avg time  |  max time  |%varavg| %total
---------------------------------------------------------------
Pair    | 1.9368     | 2.1282     | 2.4284     |  10.2 | 53.87
Bond    | 0.048653   | 0.053699   | 0.058628   |   1.5 |  1.36
Kspace  | 1.0187     | 1.3146     | 1.5017     |  12.9 | 33.28
Neigh   | 0.22951    | 0.22973    | 0.2299     |   0.0 |  5.82
Comm    | 0.10965    | 0.11857    | 0.12478    |   1.3 |  3.00
Output  | 7.4517e-05 | 9.2706e-05 | 0.00021835 |   0.0 |  0.00
Modify  | 0.095165   | 0.095442   | 0.095686   |   0.0 |  2.42
Other   |            | 0.009958   |            |       |  0.25

Nlocal:            405 ave         441 max         367 min
Histogram: 1 1 0 1 2 0 0 1 0 2
Nghost:         4682.5 ave        4807 max        4561 min
Histogram: 1 2 1 0 0 0 0 1 2 1
Neighs:        84159.1 ave       96972 max       74500 min
Histogram: 2 1 0 1 1 0 1 1 0 1

Total # of neighbors = 673273
Ave neighs/atom = 207.80031
Ave special neighs/atom = 5.7333333
Neighbor list builds = 72
Dangerous builds = 0
PPPM initialization ...
  extracting TIP4P info from pair style
  using 12-bit tables for long-range coulomb (../kspace.cpp:342)
  G vector (1/distance) = 0.24377841
  grid = 36 25 25
  stencil order = 5
  estimated absolute RMS force accuracy = 0.0034641795
  estimated relative force accuracy = 1.0432274e-05
  using double precision KISS FFT
  3d grid and FFT values/proc = 9025 3600
Generated 10 of 10 mixed pair_coeff terms from geometric mixing rule
Setting up Verlet run ...
  Unit style    : real
  Current step  : 1000
  Time step     : 1
Per MPI rank memory allocation (min/avg/max) = 30.76 | 30.88 | 31.22 Mbytes
   Step          Temp          E_pair         E_mol          TotEng         Press          Volume    
      1000   317.72637     -6143.9665      496.19551     -3148.4217      347.36685      96000        
      1500   294.72734     -6392.8997      499.27187     -3575.1972     -272.23127      94699.512    
      2000   298.65837     -6716.7758      517.64059     -3849.7816     -33.756415      91315.189    
      2500   311.98075     -6885.3046      530.36269     -3900.7898      12.268117      88851.319    
      3000   296.7682      -7099.5062      516.40947     -4248.6119      383.70715      85906.806    
      3500   301.24687     -7361.6296      532.6525      -4459.2615     -88.995179      83493.949    
      4000   297.41198     -7524.7023      533.41798     -4651.7353      193.33715      81614.283    
      4500   298.28404     -7526.0301      541.22785     -4638.3932     -355.02192      79545.232    
      5000   306.12181     -7705.9634      549.68046     -4748.2193     -433.73717      77218.915    
      5500   295.77343     -7833.7135      593.02246     -4914.0314      28.407702      75201.661    
      6000   302.76727     -7935.4457      591.07683     -4962.6932      250.91588      73307.454    
      6500   304.27865     -7986.7358      624.14745     -4969.0236      22.988859      71932.894    
      7000   303.70269     -8005.005       619.99393     -4995.9771      302.72022      70237.993    
      7500   299.42617     -8093.1024      639.42347     -5098.2856     -460.58677      68595.493    
      8000   308.26251     -8253.4775      645.20396     -5183.3703     -106.33272      67164.022    
      8500   300.37871     -8349.6598      658.36855     -5328.4048      25.630175      64946.473    
      9000   304.85461     -8435.1161      681.6849      -5355.3358      21.477984      63110.373    
      9500   310.02618     -8473.8182      707.91366     -5327.1277     -337.47832      62059.425    
     10000   306.56078     -8500.3042      708.04862     -5380.7388     -577.70467      60750.617    
     10500   308.41373     -8564.2885      723.4468      -5414.749       650.48349      59254.334    
     11000   294.29959     -8640.6732      721.74517     -5603.8622      388.73012      57812.223    
     11500   303.70921     -8679.8267      703.78159     -5586.9598      186.30583      56229.794    
     12000   310.13516     -8738.6634      727.88447     -5571.1448     -346.96864      55382.179    
     12500   304.11213     -8765.4448      721.5305      -5651.6594     -162.00345      54573.53     
     13000   307.53004     -8816.9016      749.66926     -5648.091      -714.7596       53668.734    
     13500   304.58417     -8881.0773      771.30833     -5713.8009     -373.13977      52229.89     
     14000   302.0575      -9007.3621      768.80147     -5862.4683     -437.23853      50631.158    
     14500   298.35478     -8947.4497      764.03829     -5836.4459     -886.81879      49801.829    
     15000   299.05891     -8940.5053      769.49519     -5818.5057      564.45396      48468.305    
     15500   299.0779      -8979.7684      821.61459     -5805.5         333.42075      47284.995    
     16000   302.94058     -9088.5603      786.1466      -5919.3747     -921.64951      46185.071    
     16500   303.9866      -9106.4678      819.39577     -5895.8046      1036.0647      45116.079    
     17000   303.72307     -9202.5389      826.98469     -5986.3599      798.96462      44085.09     
     17500   304.00766     -9300.4523      830.04498     -6078.9743      116.09292      43140.546    
     18000   302.31568     -9252.0487      865.77725     -6008.1481     -957.07299      42588.186    
     18500   297.80091     -9254.56        835.39441     -6076.5571     -604.81988      42034.457    
     19000   297.53289     -9287.9356      826.36525     -6121.0703     -292.26299      41545.258    
     19500   303.95467     -9276.3035      880.02307     -6005.2643      98.48072       41326.92     
     20000   299.94301     -9408.8097      837.28385     -6212.0669     -36.557301      40287.787    
     20500   294.12281     -9347.5213      871.04921     -6162.7968     -534.69145      39805.122    
     21000   294.80253     -9424.1255      880.0214      -6225.0819     -515.68002      39596.466    
     21500   299.63132     -9399.1402      874.58829     -6167.5448      283.86054      38987.48     
     22000   304.11271     -9579.011       894.24493     -6292.5067     -353.30937      38180.962    
     22500   303.97782     -9570.2016      929.71835     -6249.285      -231.76644      38031.104    
     23000   297.00087     -9589.3425      900.83814     -6352.1893      157.18419      37714.974    
     23500   291.22432     -9560.7096      877.36652     -6392.4683     -937.44694      37845.834    
     24000   293.3755      -9643.0224      878.58347     -6456.6423      439.99837      38105.217    
     24500   300.29825     -9610.9536      914.11081     -6334.5893     -548.03306      38227.876    
     25000   296.66445     -9600.7151      918.73971     -6348.3067     -263.90941      37836.585    
     25500   301.82849     -9598.361       906.1933      -6317.8768      503.04938      37116.899    
     26000   286.84863     -9748.4487      910.61486     -6581.3799     -139.28265      36794.121    
     26500   301.85146     -9726.0984      903.89999     -6447.7268     -1069.2575      36364.933    
     27000   302.70048     -9773.64        935.22851     -6457.2613      294.58992      36516.306    
     27500   295.62854     -9718.9439      916.38879     -6477.0353     -927.64872      36821.945    
     28000   290.97288     -9682.0503      930.13739     -6463.0161      201.83612      36806.939    
     28500   303.35989     -9758.4005      955.61705     -6416.4461     -230.19797      36293.727    
     29000   310.94119     -9769.6999      926.36534     -6397.36       -631.91446      36253.194    
     29500   301.97872     -9802.7635      970.4785      -6456.8124      690.08183      36399.924    
     30000   299.78461     -9738.1867      924.65329     -6455.3204      208.34694      36093.27     
     30500   297.01541     -9765.7381      955.45391     -6473.8547     -543.54267      36026.136    
     31000   301.35005     -9780.2938      971.30348     -6438.463       2537.7675      35899.067    
     31500   293.03131     -9829.4286      969.70026     -6554.6393     -508.54338      36008.324    
     32000   294.99898     -9856.5881      971.18697     -6564.8336     -1372.2126      35675.635    
     32500   295.74002     -9814.3937      975.03188     -6512.965       770.4552       35500.097    
     33000   300.43377     -9816.2477      1008.5056     -6444.4226     -842.72282      35627.716    
     33500   298.03997     -9925.9307      982.02705     -6599.4146      998.15447      34913.825    
     34000   299.50404     -9960.0504      1013.3654     -6590.6791      1092.3172      34937.177    
     34500   298.68342     -9902.8019      996.60032     -6556.651      -597.39515      35174.806    
     35000   303.42806     -9913.8849      1018.9793     -6508.032      -332.77582      35385.31     
     35500   307.58179     -9940.0377      1011.3068     -6509.1825      660.41397      35689.915    
     36000   313.11382     -9935.1424      1012.6016     -6459.4755     -636.83907      35896.574    
     36500   298.58716     -9940.3701      1086.3676     -6505.2091     -34.684205      35817.672    
     37000   304.28589     -9985.1748      1006.9105     -6584.6426     -148.50031      35790.822    
     37500   298.72676     -9959.3508      1034.2258     -6575.2335     -539.22659      35903.026    
     38000   292.11297     -10061.963      1050.5116     -6713.586       1502.6367      35247.549    
     38500   304.50064     -10048.114      1039.3331     -6613.4704      386.12062      35353.581    
     39000   298.13171     -10046.117      1042.2792     -6658.6267     -1030.6938      35539.853    
     39500   301.5365      -10103.642      1017.7181     -6713.9295     -321.40621      35424.458    
     40000   299.79049     -10064.358      1054.1405     -6651.9581      25.505419      35050.984    
     40500   298.37015     -10079.423      1022.8646     -6709.472       1077.5858      35217.587    
     41000   293.09378     -10067.795      1062.4594     -6699.7554      267.91894      36031.973    
     41500   298.26881     -10054.352      1068.2545     -6639.8083     -395.99977      36066.654    
     42000   304.71812     -10045.572      1091.8488     -6556.7018      844.13241      35571.38     
     42500   303.95583     -10056.22       1084.4713     -6580.7236      399.61002      35594.714    
     43000   304.51044     -10085.753      1036.3909     -6653.9743     -515.49902      35505.705    
     43500   299.31753     -10084.827      1058.7985     -6671.4893     -766.30836      35459.278    
     44000   301.68026     -10032.961      1060.8837     -6598.9527      847.33224      34863.504    
     44500   293.87116     -10099.012      1057.9625     -6729.3535     -1065.6105      34973.591    
     45000   296.37134     -10063.888      1048.579      -6683.9457      855.1532       35215.052    
     45500   295.38864     -10102.57       1071.5239     -6707.4129      121.90104      35509.546    
     46000   315.88442     -10100.27       1088.2857     -6527.1242      402.64196      34939.02     
     46500   311.26669     -10122.99       1064.6265     -6609.8282     -160.06687      34992.821    
     47000   298.89505     -10045.18       1067.6173     -6626.347       1002.7314      35191.768    
     47500   299.41255     -10120.526      1087.7309     -6677.5087     -29.066065      34737.483    
     48000   295.43302     -10123.07       1077.3463     -6721.7416     -1091.0965      34771.437    
     48500   300.89366     -10078.541      1078.6282     -6632.9757      402.31562      35090.716    
     49000   299.84627     -10135.845      1087.5367     -6689.6108     -1569.1799      35424.92     
     49500   303.85382     -10136.754      1131.0991     -6615.4318      75.783646      35228.336    
     50000   304.49511     -10170.625      1090.5971     -6684.7609     -46.469226      35262.544    
     50500   294.75001     -10062.196      1102.0103     -6641.5771     -142.13881      35288.974    
     51000   302.05699     -10140.958      1105.817      -6659.0526     -431.1884       35016.093    
     51500   301.50891     -10139.605      1131.5307     -6636.2976      857.81316      35276.246    
     52000   305.37863     -10169.784      1060.6251     -6706.9411      277.4453       35342.545    
     52500   297.66318     -10242.657      1081.136      -6819.9956      247.2493       34746.843    
     53000   300.37529     -10210.947      1045.2359     -6802.8513      600.19605      35009.394    
     53500   297.47996     -10214.017      1087.0956     -6786.8373     -583.53859      34911.519    
     54000   303.0723      -10159.681      1093.5059     -6682.1002      303.62264      34692.892    
     54500   306.71506     -10193.354      1118.2134     -6662.4102      586.94277      35162.455    
     55000   306.17359     -10236.371      1066.9612     -6760.9392     -185.14965      34588.563    
     55500   298.21809     -10249.301      1108.6952     -6794.7158     -478.32039      34986.839    
     56000   303.42031     -10163.55       1131.7364     -6645.0005     -573.06988      35011.355    
     56500   295.64229     -10190.38       1122.6661     -6742.0857      1151.848       34651.385    
     57000   305.53892     -10186.697      1080.7081     -6702.5101      357.60378      34663.353    
     57500   306.60512     -10204.818      1124.1515     -6668.8014     -1022.2159      34599.755    
     58000   293.10983     -10214.499      1163.3975     -6745.3946      74.627061      34538.196    
     58500   292.78484     -10227.486      1088.0501     -6836.286      -1002.8729      34653.146    
     59000   295.50015     -10256.629      1105.7876     -6826.3317     -494.5208       34546.944    
     59500   306.74734     -10169.582      1135.0959     -6621.5018     -441.08227      34415.744    
     60000   295.95727     -10209.209      1131.5118     -6749.5917      1956.6512      34078.602    
     60500   293.60807     -10216.878      1070.1673     -6837.0845     -1852.9541      34685.603    
     61000   293.70219     -10242.522      1113.813      -6818.3425      610.04858      34734.86     
     61500   302.2458      -10286.958      1063.2398     -6846.1446     -153.73811      34723.149    
     62000   297.00786     -10237.963      1108.7424     -6792.8505     -54.126217      34896.449    
     62500   297.90403     -10225.3        1139.9638     -6741.917       1096.1698      35118.376    
     63000   299.09267     -10231.869      1097.9129     -6781.1859     -1331.6947      34930.693    
     63500   293.70788     -10220.242      1095.7641     -6814.0664      160.67405      34910.457    
     64000   299.06845     -10186.116      1142.8803     -6690.6559      819.26937      34893.034    
     64500   303.66595     -10227.831      1101.2238     -6737.862       1215.4191      34518.426    
     65000   303.69003     -10239.446      1101.2281     -6749.2831     -486.30468      34941.236    
     65500   289.26563     -10178.494      1108.2436     -6794.7834     -573.27706      35039.065    
     66000   294.82655     -10183.688      1112.8422     -6751.6348     -86.869007      34629.349    
     66500   300.05096     -10202.953      1140.2988     -6702.3465     -460.24388      34519.447    
     67000   299.88928     -10238.005      1114.4582     -6764.5104      343.98192      34649.299    
     67500   297.31273     -10242.43       1096.8633     -6806.7985      778.42274      34459.641    
     68000   297.91818     -10295.741      1089.5087     -6862.7016     -636.07533      34016.825    
     68500   299.39344     -10271.685      1092.8698     -6823.6798      43.998338      34157.488    
     69000   307.26876     -10218.137      1121.5142     -6679.5373      43.307219      34843.905    
     69500   297.90605     -10217.719      1140.6861     -6733.5972      360.38762      34372.264    
     70000   303.15926     -10197.67       1121.5759     -6691.3349      557.60121      34342.87     
     70500   296.42507     -10161.521      1080.8904     -6748.8452     -634.45962      34918.298    
     71000   303.71579     -10178.911      1054.2576     -6735.5162      283.78723      34152.748    
     71500   301.41555     -10142.318      1143.7805     -6627.4954      269.21232      34151.457    
     72000   301.50281     -10127.705      1098.438      -6657.5383     -553.64011      35064.828    
     72500   293.56511     -10265.445      1135.9386     -6820.2186     -45.085099      34222.305    
     73000   300.98833     -10230.449      1089.5681     -6773.1992     -41.374717      34332.686    
     73500   303.48569     -10239.044      1083.4336     -6768.2831     -699.89331      34997.178    
     74000   304.76433     -10294.526      1084.2828     -6812.8582      41.445302      34927.804    
     74500   306.56506     -10288.959      1092.0042     -6785.404       278.45277      34429.85     
     75000   297.82717     -10180.94       1105.173      -6732.9517      905.88321      34898.99     
     75500   291.03462     -10231.232      1148.5445     -6793.3046     -419.3556       34989.205    
     76000   288.69632     -10269.125      1123.8367     -6874.3         340.27453      34407.942    
     76500   302.4573      -10207.107      1121.9486     -6705.9206      352.68792      34686.677    
     77000   299.16168     -10204.745      1119.4597     -6731.9727      185.20415      35286.543    
     77500   304.65975     -10293.297      1080.4953     -6816.2389      968.3927       34900.387    
     78000   305.51484     -10248.022      1169.185      -6675.5477      319.57657      34783.561    
     78500   299.13808     -10245.572      1104.6953     -6787.7492      98.067709      35109.214    
     79000   300.94324     -10209.302      1094.3667     -6747.6079      534.55767      34682.26     
     79500   297.24453     -10202.829      1103.9391     -6760.6584      176.4975       34432.145    
     80000   290.20782     -10223.552      1126.3236     -6814.3498     -176.29099      34808.382    
     80500   297.67351     -10228.934      1113.7273     -6773.6007      1315.7907      34475.356    
     81000   298.25213     -10327.455      1111.8733     -6869.4234     -356.48545      34526.144    
     81500   297.70847     -10272.066      1086.0764     -6844.1084      1411.0744      34802.978    
     82000   303.7092      -10317.601      1107.8819     -6820.6343      1456.0136      34706.688    
     82500   299.99303     -10264.932      1099.22       -6805.8592     -109.436        34887.457    
     83000   301.56127     -10237.034      1104.6988     -6760.146       506.0764       34935.861    
     83500   298.27642     -10284.473      1086.662      -6851.4617     -188.57148      34837.859    
     84000   300.95815     -10238.855      1120.7333     -6750.6776     -333.98779      34522.082    
     84500   304.20367     -10273.406      1106.3101     -6774.1214     -78.322439      34398.553    
     85000   295.03928     -10289.97       1086.8042     -6882.2811     -663.73103      34526.773    
     85500   289.60652     -10294.843      1095.0234     -6921.6711      523.603        34418.832    
     86000   304.24161     -10264.519      1114.4699     -6756.7757     -448.75124      34637.752    
     86500   292.69499     -10209.694      1099.8519     -6807.3984     -1267.2666      35131.943    
     87000   299.22114     -10298.374      1082.5415     -6862.052      -179.82422      35017.592    
     87500   298.94077     -10213.213      1114.6142     -6747.0242      1300.6118      34930.809    
     88000   299.87523     -10311.847      1068.766      -6884.1551      658.18198      34598.113    
     88500   298.24087     -10257.883      1140.7362     -6771.0773     -1095.7746      35187.042    
ERROR: Out of range atoms - cannot compute PPPM (../pppm_tip4p.cpp:107)
Last command: run 100000
LAMMPS (23 Jun 2022 - Update 4)
Lattice spacing in x,y,z = 10 10 10
Created orthogonal box = (-40 -30 -30) to (40 20 20)
  2 by 2 by 2 MPI processor grid
Read molecule template tolmol:
  1 molecules
  0 fragments
  15 atoms with max type 5
  18 bonds with max type 6
  24 angles with max type 5
  30 dihedrals with max type 3
  6 impropers with max type 1
Read molecule template h2omol:
  1 molecules
  0 fragments
  3 atoms with max type 2
  2 bonds with max type 1
  1 angles with max type 1
  0 dihedrals with max type 0
  0 impropers with max type 0
Created 3000 atoms
  using lattice units in orthogonal box = (-40 -30 -30) to (40 20 20)
  create_atoms CPU = 0.006 seconds
Created 3000 atoms
  using lattice units in orthogonal box = (-40 -30 -30) to (40 20 20)
  create_atoms CPU = 0.022 seconds
3000 atoms in group H2O
3000 atoms in group tol
Finding SHAKE clusters ...
       0 = # of size 2 clusters
       0 = # of size 3 clusters
       0 = # of size 4 clusters
    1000 = # of frozen angles
  find clusters CPU = 0.047 seconds
PPPM initialization ...
  extracting TIP4P info from pair style
  using 12-bit tables for long-range coulomb (../kspace.cpp:342)
  G vector (1/distance) = 0.24069891
  grid = 45 30 30
  stencil order = 5
  estimated absolute RMS force accuracy = 0.0036899824
  estimated relative force accuracy = 1.1112273e-05
  using double precision KISS FFT
  3d grid and FFT values/proc = 14036 5400
WARNING: Communication cutoff 0 is shorter than a bond length based estimate of 5.42. This may lead to errors. (../comm.cpp:727)
WARNING: Increasing communication cutoff to 15.1118 for TIP4P pair style (../pair_lj_cut_tip4p_long.cpp:484)
Generated 10 of 10 mixed pair_coeff terms from geometric mixing rule
WARNING: Should not use fix nve/limit with fix shake or fix rattle (../fix_nve_limit.cpp:78)
Neighbor list info ...
  update every 1 steps, delay 10 steps, check yes
  max neighbors/atom: 2000, page size: 100000
  master list distance cutoff = 14.3092
  ghost atom cutoff = 15.1118
  binsize = 7.1546, bins = 12 7 7
  1 neighbor lists, perpetual/occasional/extra = 1 0 0
  (1) pair lj/cut/tip4p/long, perpetual
      attributes: half, newton on
      pair build: half/bin/newton
      stencil: half/bin/3d
      bin: standard
Setting up Verlet run ...
  Unit style    : real
  Current step  : 0
  Time step     : 1
Per MPI rank memory allocation (min/avg/max) = 31.63 | 31.67 | 31.68 Mbytes
   Step          Temp          E_pair         E_mol          TotEng         Press     
         0   0              31399.419      69.028304      31468.447     -6.2906029e+183
       500   325.68126     -10031.858      1021.9695     -4156.8893      219.30074    
      1000   308.67766     -10758.723      986.3559      -5172.7397      454.92502    
Loop time of 6.33233 on 8 procs for 1000 steps with 6000 atoms

Performance: 13.644 ns/day, 1.759 hours/ns, 157.920 timesteps/s
96.0% CPU use with 8 MPI tasks x no OpenMP threads

MPI task timing breakdown:
Section |  min time  |  avg time  |  max time  |%varavg| %total
---------------------------------------------------------------
Pair    | 3.1292     | 3.3909     | 3.7798     |   9.7 | 53.55
Bond    | 0.094442   | 0.10588    | 0.11387    |   2.1 |  1.67
Kspace  | 1.7528     | 2.1285     | 2.3777     |  11.9 | 33.61
Neigh   | 0.40557    | 0.40568    | 0.40582    |   0.0 |  6.41
Comm    | 0.13972    | 0.15273    | 0.16197    |   1.7 |  2.41
Output  | 8.3423e-05 | 8.8563e-05 | 0.00011981 |   0.0 |  0.00
Modify  | 0.1334     | 0.13372    | 0.13405    |   0.1 |  2.11
Other   |            | 0.01479    |            |       |  0.23

Nlocal:            750 ave         786 max         704 min
Histogram: 1 1 0 1 0 1 1 0 2 1
Nghost:        5733.12 ave        5872 max        5594 min
Histogram: 1 0 2 0 1 1 0 1 1 1
Neighs:         138636 ave      150522 max      124478 min
Histogram: 1 1 1 0 1 0 1 0 2 1

Total # of neighbors = 1109086
Ave neighs/atom = 184.84767
Ave special neighs/atom = 6.2
Neighbor list builds = 76
Dangerous builds = 0
PPPM initialization ...
  extracting TIP4P info from pair style
  using 12-bit tables for long-range coulomb (../kspace.cpp:342)
  G vector (1/distance) = 0.24069891
  grid = 45 30 30
  stencil order = 5
  estimated absolute RMS force accuracy = 0.0036899824
  estimated relative force accuracy = 1.1112273e-05
  using double precision KISS FFT
  3d grid and FFT values/proc = 14036 5400
Generated 10 of 10 mixed pair_coeff terms from geometric mixing rule
Setting up Verlet run ...
  Unit style    : real
  Current step  : 1000
  Time step     : 1
Per MPI rank memory allocation (min/avg/max) = 31.63 | 31.67 | 31.68 Mbytes
   Step          Temp          E_pair         E_mol          TotEng         Press          Volume    
      1000   308.67766     -10758.723      986.3559      -5172.7397      454.93853      200000       
      1500   297.5426      -11228.759      1047.1674     -5747.8892     -118.59284      202151.56    
      2000   293.08381     -11499.82       1026.0797     -6106.4783     -106.60947      205208.09    
      2500   299.38224     -11793.435      1058.404      -6273.9151      59.037975      206963.99    
      3000   305.65686     -11933.731      1121.7392     -6257.3773      120.08928      207889.52    
      3500   304.44478     -12218.281      1109.8805     -6571.8472     -31.613831      207920.1     
      4000   300.93995     -12330.793      1190.0492     -6656.4171      195.92812      205061.84    
      4500   303.9043      -12665.727      1209.2758     -6927.9524     -34.273094      200656.47    
      5000   302.72606     -12803.253      1241.3524     -7050.9588     -44.110381      197006.79    
      5500   306.54795     -13013.634      1269.0216     -7176.7205     -166.54028      194010.36    
      6000   304.12652     -13114.905      1287.2953     -7295.7989      147.80791      191021.6     
      6500   296.35276     -13297.025      1312.8211     -7568.2314      81.705381      187323.38    
      7000   303.99026     -13546.158      1337.5552     -7678.8226     -184.04057      184452.5     
      7500   302.22319     -13649.324      1337.2965     -7808.5785     -70.782047      180557.72    
      8000   300.73426     -13866.808      1382.9865     -8002.56        113.84809      177158.69    
      8500   298.82007     -13887.213      1370.1435     -8064.3314     -287.56518      175303.25    
      9000   301.46446     -14106.734      1438.7874     -8175.8034      22.061915      171299.12    
      9500   308.19424     -14228.354      1447.5495     -8188.381       208.71167      169435.45    
     10000   294.12026     -14348.537      1475.3555     -8490.4755      12.355071      167585.77    
     10500   294.08165     -14437.982      1483.4625     -8572.3887      72.794429      164407.72    
     11000   302.90288     -14575.013      1456.3132     -8605.1233      195.81706      161231.74    
     11500   295.07232     -14629.68       1536.1714     -8696.6159     -470.39698      158364.9     
     12000   302.05085     -14755.697      1510.8481     -8743.9682     -60.282581      155532.04    
     12500   300.11745     -14808.661      1591.4175     -8745.1722     -285.3641       152078.43    
     13000   302.66995     -14958.034      1569.0461     -8878.8816     -309.59277      148525.91    
     13500   303.61946     -15119.94       1615.584      -8980.1014      186.15396      145361.78    
     14000   287.39402     -15073.335      1616.9083     -9173.9488     -235.88456      142975.07    
     14500   303.30458     -15350.023      1619.0626     -9211.3983     -156.73024      140667.55    
     15000   305.59109     -15429.046      1636.0637     -9239.3481      42.078697      138344.64    
     15500   297.35093     -15486.042      1621.2281     -9433.9673     -760.09487      136512.83    
     16000   300.98445     -15592.348      1689.3927     -9417.9656     -259.61891      135282.18    
     16500   301.39242     -15587.021      1711.0324     -9384.9195     -63.248502      132402.84    
     17000   303.77174     -15681.014      1654.916      -9499.5737     -386.13898      130361.05    
     17500   297.49712     -15657.281      1731.9815     -9492.2741      303.08183      127759.7     
     18000   297.74904     -15738.597      1733.8885     -9567.9296      375.12149      124946.14    
     18500   298.57977     -15844.721      1758.3869     -9637.1766     -360.76753      122328.28    
     19000   297.66305     -16030.492      1702.9539     -9892.0405     -740.40977      119853.82    
     19500   294.13437     -16083.008      1800.8236     -9899.2676     -492.17995      116751.15    
     20000   295.99344     -16154.454      1742.6396     -10001.196     -292.36815      115013.94    
     20500   304.63507     -16354.478      1774.791      -10040.298      347.07451      112791.56    
     21000   295.15557     -16320.122      1825.3262     -10096.662     -68.641602      110609.85    
     21500   298.93855     -16468.149      1810.5084     -10203.136     -293.19561      108997.86    
     22000   295.06658     -16507.377      1845.4809     -10265.088      173.09301      107348.96    
     22500   299.09314     -16564.478      1869.2641     -10238.406      162.74111      105729.45    
     23000   298.25911     -16553.862      1889.5284     -10219.954     -74.414707      104357.35    
     23500   295.4534      -16522.117      1919.3827     -10200.162      490.41421      102686.61    
     24000   307.18378     -16606.604      1953.8695     -10075.368     -3.7640467      100845.47    
     24500   304.11628     -16832.261      1890.2581     -10410.345     -78.050584      99385.764    
     25000   296.95516     -16755.188      1946.6248     -10383.614      42.032624      97098.844    
     25500   302.53329     -16857.067      1901.1628     -10447.835      201.7617       95041.936    
     26000   299.79156     -16873.028      1963.6476     -10442.165      134.16315      93979.215    
     26500   297.57969     -16856.512      1943.9348     -10478.321     -385.56944      92319.655    
     27000   300.20288     -16952.173      1957.0758     -10521.753     -36.076982      90681.647    
     27500   301.1585      -17020.328      1980.463      -10552.282      176.59765      88956.178    
     28000   301.70345     -17093.456      1952.3736     -10645.378     -215.63283      87986.086    
     28500   302.87144     -17218.699      1986.4914     -10719.099     -805.84447      86827.317    
     29000   293.98488     -17081.161      2024.7756     -10675.696     -123.50609      87046.737    
     29500   302.63576     -17213.238      1960.0665     -10743.575     -13.815634      85993.544    
     30000   301.95168     -17228.243      2034.91       -10693.93       99.151416      84786.357    
     30500   303.71687     -17277.436      1999.6206     -10752.109     -190.08691      84820.442    
     31000   298.19865     -17308.791      2025.7635     -10839.549     -366.35811      84330.553    
     31500   294.83386     -17229.756      2028.2448     -10808.172      456.95722      83565.219    
     32000   298.4048      -17368.025      2054.9128     -10866.562      198.79288      83629.564    
     32500   297.27477     -17510.072      2017.93       -11062.43       517.11188      81673.39     
     33000   299.1838      -17462.234      2046.1715     -10957.904      554.74064      81154.363    
     33500   309.12027     -17561.288      2019.8426     -10935.223     -810.52209      81770.675    
     34000   298.49639     -17455.179      2107.3389     -10899.925     -419.34018      80859.605    
     34500   300.53824     -17535.251      2082.9634     -10973.946      746.82937      79305.238    
     35000   307.13461     -17543.963      2132.9539     -10834.375     -300.94928      78855.281    
     35500   295.40289     -17589.783      2095.528      -11092.436      113.33796      78129.517    
     36000   301.87317     -17679.561      2105.6552     -11075.673     -491.12642      77113.212    
     36500   299.66963     -17670.348      2062.4877     -11142.462     -570.9118       76380.065    
     37000   297.03262     -17698.343      2053.406      -11218.833     -155.37284      75235.112    
     37500   304.65967     -17635.242      2112.5535     -10982.934     -145.48522      74947.427    
     38000   304.07294     -17800.257      2106.6457     -11162.6        272.24645      74393.07     
     38500   300.59742     -17774.568      2145.7953     -11149.55       509.56284      72840.355    
     39000   295.03062     -17776.8        2170.7759     -11209.752      100.82066      72043.232    
     39500   303.27788     -17820.382      2116.2419     -11184.976      131.00946      70798.206    
     40000   296.3892      -17783.003      2174.8981     -11191.589     -23.045134      71157.652    
     40500   293.57526     -17781.812      2155.666      -11251.56       120.03483      71070.972    
     41000   300.87052     -17871.965      2083.3846     -11305.288     -116.39334      69559.536    
     41500   298.63678     -17979.355      2112.6344     -11416.713     -36.218318      69234.46     
     42000   301.35796     -17899.072      2147.2924     -11261.224     -686.87441      69749.531    
     42500   302.40408     -17866.841      2134.275      -11226.422     -38.777174      69412.404    
     43000   301.13482     -17917.122      2191.6978     -11238.194     -59.011009      69125.856    
     43500   294.33639     -17948.883      2238.8691     -11324.087     -197.59901      68029.004    
     44000   299.84519     -18135.631      2127.5393     -11540.077      444.23478      67486.56     
     44500   302.3925      -18048.196      2197.7847     -11344.439      496.5963       68259.34     
     45000   296.19965     -18078.477      2184.4749     -11480.31      -599.1003       68125.899    
     45500   304.10687     -18158.144      2184.0227     -11442.604      796.93224      67106.538    
     46000   305.23235     -18173.61       2212.335      -11412.987     -1534.6762      67069.902    
     46500   300.93799     -18250.717      2191.6498     -11574.769     -256.83906      66258.267    
     47000   302.18449     -18232.058      2200.4172     -11528.768     -102.77437      66048.582    
     47500   301.29895     -18138.939      2221.1815     -11428.081     -730.55523      66287.712    
     48000   299.50281     -18212.687      2178.1398     -11571.635     -858.11938      66740.012    
     48500   299.28982     -18148.816      2240.708      -11448.37      -74.450734      66362.395    
     49000   296.94463     -18184.467      2195.7448     -11563.93       84.59204       66451.415    
     49500   297.45523     -18063.888      2208.1466     -11423.34      -1079.1186      67400.03     
     50000   302.07354     -18257.863      2274.8619     -11481.783     -415.08208      66237.698    
     50500   301.16574     -18213.534      2201.2724     -11524.57       413.48836      66499.548    
     51000   298.97218     -18195.289      2253.6219     -11486.661     -525.33166      66561.629    
     51500   301.84571     -18253.423      2227.073      -11528.527     -1124.5317      65929.941    
     52000   300.80302     -18205.977      2301.8437     -11421.847      424.61268      65686.383    
     52500   301.0277      -18217.667      2219.8387     -11512.194      122.47746      65731.96     
     53000   301.16022     -18212.396      2210.7345     -11514.052     -596.92046      66362.186    
     53500   305.17218     -18152.05       2206.1516     -11398.507     -503.25395      65914.297    
     54000   298.78075     -18255.762      2213.5655     -11590.044     -57.464869      66024.072    
     54500   304.57398     -18311.043      2205.762      -11566.803      128.72297      65973.075    
     55000   301.32895     -18270.539      2259.4985     -11520.917      24.440905      65532.986    
     55500   303.97406     -18334.167      2240.2082     -11564.42       169.34585      65206.206    
     56000   299.86342     -18153.056      2294.5598     -11390.211     -313.00128      66158.009    
LAMMPS (23 Jun 2022 - Update 4)
Lattice spacing in x,y,z = 10 10 10
Created orthogonal box = (-40 -30 -30) to (40 20 20)
  2 by 2 by 2 MPI processor grid
Read molecule template tolmol:
  1 molecules
  0 fragments
  15 atoms with max type 5
  18 bonds with max type 6
  24 angles with max type 5
  30 dihedrals with max type 3
  6 impropers with max type 1
Read molecule template h2omol:
  1 molecules
  0 fragments
  3 atoms with max type 2
  2 bonds with max type 1
  1 angles with max type 1
  0 dihedrals with max type 0
  0 impropers with max type 0
Created 3000 atoms
  using lattice units in orthogonal box = (-40 -30 -30) to (40 20 20)
  create_atoms CPU = 0.006 seconds
Created 3000 atoms
  using lattice units in orthogonal box = (-40 -30 -30) to (40 20 20)
  create_atoms CPU = 0.044 seconds
3000 atoms in group H2O
3000 atoms in group tol
Finding SHAKE clusters ...
       0 = # of size 2 clusters
       0 = # of size 3 clusters
       0 = # of size 4 clusters
    1000 = # of frozen angles
  find clusters CPU = 0.001 seconds
PPPM initialization ...
  extracting TIP4P info from pair style
  using 12-bit tables for long-range coulomb (../kspace.cpp:342)
  G vector (1/distance) = 0.24069891
  grid = 45 30 30
  stencil order = 5
  estimated absolute RMS force accuracy = 0.0036899824
  estimated relative force accuracy = 1.1112273e-05
  using double precision KISS FFT
  3d grid and FFT values/proc = 14036 5400
WARNING: Communication cutoff 0 is shorter than a bond length based estimate of 5.42. This may lead to errors. (../comm.cpp:727)
WARNING: Increasing communication cutoff to 15.1118 for TIP4P pair style (../pair_lj_cut_tip4p_long.cpp:484)
Generated 10 of 10 mixed pair_coeff terms from geometric mixing rule
WARNING: Should not use fix nve/limit with fix shake or fix rattle (../fix_nve_limit.cpp:78)
Neighbor list info ...
  update every 1 steps, delay 10 steps, check yes
  max neighbors/atom: 2000, page size: 100000
  master list distance cutoff = 14.3092
  ghost atom cutoff = 15.1118
  binsize = 7.1546, bins = 12 7 7
  1 neighbor lists, perpetual/occasional/extra = 1 0 0
  (1) pair lj/cut/tip4p/long, perpetual
      attributes: half, newton on
      pair build: half/bin/newton
      stencil: half/bin/3d
      bin: standard
Setting up Verlet run ...
  Unit style    : real
  Current step  : 0
  Time step     : 1
Per MPI rank memory allocation (min/avg/max) = 31.63 | 31.67 | 31.68 Mbytes
   Step          Temp          E_pair         E_mol          TotEng         Press     
         0   0             -6593.1103      69.028304     -6524.082      -1602.5214    
       500   313.08975     -8451.0798      400.69618     -3385.0115     -776.41601    
      1000   297.62648     -9074.5593      828.90435     -3810.7021      2237.3825    
Loop time of 5.59299 on 8 procs for 1000 steps with 6000 atoms

Performance: 15.448 ns/day, 1.554 hours/ns, 178.795 timesteps/s
96.7% CPU use with 8 MPI tasks x no OpenMP threads

MPI task timing breakdown:
Section |  min time  |  avg time  |  max time  |%varavg| %total
---------------------------------------------------------------
Pair    | 2.8499     | 3.1534     | 3.4671     |  10.5 | 56.38
Bond    | 0.093022   | 0.096249   | 0.10252    |   0.9 |  1.72
Kspace  | 1.425      | 1.7296     | 2.0252     |  13.9 | 30.92
Neigh   | 0.41031    | 0.41044    | 0.41056    |   0.0 |  7.34
Comm    | 0.093592   | 0.10362    | 0.11424    |   1.9 |  1.85
Output  | 0.0039784  | 0.0039851  | 0.0040224  |   0.0 |  0.07
Modify  | 0.086893   | 0.08707    | 0.087468   |   0.1 |  1.56
Other   |            | 0.008643   |            |       |  0.15

Nlocal:            750 ave         800 max         706 min
Histogram: 1 1 0 1 2 1 0 1 0 1
Nghost:        5688.62 ave        5775 max        5575 min
Histogram: 1 0 0 1 0 3 1 0 1 1
Neighs:         139118 ave      151647 max      127984 min
Histogram: 1 2 0 0 2 0 1 0 1 1

Total # of neighbors = 1112946
Ave neighs/atom = 185.491
Ave special neighs/atom = 6.2
Neighbor list builds = 85
Dangerous builds = 0
PPPM initialization ...
  extracting TIP4P info from pair style
  using 12-bit tables for long-range coulomb (../kspace.cpp:342)
  G vector (1/distance) = 0.24069891
  grid = 45 30 30
  stencil order = 5
  estimated absolute RMS force accuracy = 0.0036899824
  estimated relative force accuracy = 1.1112273e-05
  using double precision KISS FFT
  3d grid and FFT values/proc = 14036 5400
Generated 10 of 10 mixed pair_coeff terms from geometric mixing rule
Setting up Verlet run ...
  Unit style    : real
  Current step  : 1000
  Time step     : 1
Per MPI rank memory allocation (min/avg/max) = 31.63 | 31.67 | 31.68 Mbytes
   Step          Temp          E_pair         E_mol          TotEng         Press          Volume    
      1000   297.62648     -9074.5593      828.90435     -3810.7021      2237.356       200000       
      1500   307.65952     -9644.6461      679.38565     -4380.8045     -521.4267       202242.74    
      2000   297.17715     -10075.244      811.76311     -4835.2235      32.275242      207278.57    
      2500   307.84313     -10380.101      851.68584     -4941.2234     -115.28841      210700.97    
      3000   295.67943     -10595.673      950.99069     -5238.7427      1406.6391      215081.94    
      3500   298.5971      -10935.542      956.97682     -5529.1486     -468.2544       218612.22    
      4000   296.40731     -11041.356      979.51998     -5645.05        180.55317      220040.38    
      4500   298.84484     -11255.88       989.30619     -5813.466      -39.305         222195.18    
      5000   300.09149     -11464.952      1028.7865     -5964.4818      330.93517      226588.07    
      5500   304.66018     -11670.243      1080.9512     -6049.5296     -405.01939      228864       
      6000   305.32136     -11873.713      1093.808      -6230.2901      388.56256      232123.19    
      6500   303.16008     -11982.393      1151.6709     -6313.3131      189.50797      234008.74    
      7000   304.08569     -12060.009      1164.6061     -6364.2014     -102.78777      233618.87    
      7500   300.11593     -12342.118      1144.4819     -6725.5878     -104.0747       229028.05    
      8000   300.58004     -12385.122      1203.257      -6702.9008      107.09993      226262.69    
      8500   295.47962     -12608.46       1209.9877     -6995.5099     -71.274922      223707.01    
      9000   299.63902     -12676.38       1211.3167     -7000.1219     -13.925941      222590.86    
      9500   299.28212     -12809.072      1255.4635     -7093.9849      123.39904      219359.77    
     10000   302.15984     -13099.789      1243.7239     -7353.5609     -71.259411      214228.1     
     10500   298.60764     -13212.532      1259.2628     -7503.6957     -289.81427      210246.51    
     11000   302.99732     -13465.738      1241.6041     -7709.1498     -154.57615      208113.52    
     11500   302.05282     -13591.651      1308.8095     -7781.9315     -381.36734      206294.03    
     12000   305.70116     -13757.68       1313.4005     -7889.0053     -14.97899       201949.57    
     12500   297.43389     -13779.196      1371.0263     -7976.0863      217.50867      199138.71    
     13000   300.97589     -13996.717      1349.0015     -8162.8528     -56.152409      194758.24    
     13500   302.14705     -13993.051      1383.2956     -8107.4411     -194.16498      191745.58    
     14000   296.55022     -14158.12       1411.9664     -8327.2379      260.01183      189219.03    
     14500   296.3069      -14168.426      1412.5332     -8340.6029     -90.985361      185522.85    
     15000   296.57096     -14375.45       1430.3119     -8525.914       82.605294      183461.58    
     15500   303.783       -14450.867      1488.2158     -8435.9597      57.193092      180699.65    
     16000   302.25742     -14506.078      1493.1236     -8508.996      -145.06825      177636.39    
     16500   295.538       -14610.249      1476.8956     -8729.5211     -19.233471      174290.54    
     17000   307.89553     -14659.665      1551.416      -8520.2759      270.6967       171362.39    
     17500   300.98663     -14750.226      1489.9452     -8775.2577     -29.096992      169469.91    
     18000   302.62141     -14820.138      1508.6812     -8802.0746      36.821846      167559.17    
     18500   299.40908     -14849.314      1545.9122     -8841.8867     -505.18255      164308.39    
     19000   303.40707     -14969.075      1566.7123     -8881.2728     -235.54467      160194.27    
     19500   297.38189     -15049.225      1584.6189     -9033.2981     -294.0751       157604.73    
     20000   301.1434      -15188.913      1566.9768     -9134.5775      87.288174      154258.19    
     20500   300.21869     -15329.291      1634.377      -9221.3341      363.73946      151706.74    
     21000   294.76799     -15281.667      1628.9138     -9260.3953     -152.34577      148434.44    
     21500   306.28579     -15322.635      1676.0924     -9082.5567     -171.36594      145602.56    
     22000   303.73318     -15408.19       1694.7775     -9187.4628     -39.713762      142643.98    
     22500   299.78842     -15402.75       1698.7528     -9236.8291     -127.74438      139443.95    
     23000   301.36872     -15533.752      1643.3296     -9399.7057     -404.89147      135952.1     
     23500   302.41833     -15667.033      1669.0268     -9491.6495     -222.93046      133453.7     
     24000   301.83868     -15810.747      1667.9255     -9645.1025     -53.775545      130551.26    
     24500   302.42288     -15923.812      1704.3797     -9713.0083     -197.99461      128546.63    
     25000   301.25002     -15922.836      1715.5133     -9718.3749      130.44608      126968.88    
     25500   306.75642     -15946.568      1736.5479     -9639.0213      483.42573      124483.15    
     26000   304.08627     -16016.745      1788.3621     -9697.1725     -358.8068       122458.2     
     26500   296.72704     -16061.172      1757.5454     -9882.0769     -96.891859      119601.53    
     27000   299.35824     -16079.68       1788.2963     -9830.6261     -362.70643      117193.02    
     27500   305.36595     -16216.064      1788.9368     -9876.8479     -220.23568      114934.5     
     28000   297.20492     -16282.493      1780.9669     -10072.854     -23.953549      112901.42    
     28500   305.10784     -16348.918      1815.6107     -9986.8741      429.02119      111255.87    
     29000   299.28181     -16393.91       1813.3762     -10120.915     -503.11001      109219       
     29500   293.96531     -16404.725      1865.8927     -10158.435     -91.591548      106992.18    
     30000   299.94768     -16483.062      1815.0101     -10198.51      -96.009048      105147.76    
     30500   302.42058     -16539.521      1895.6882     -10137.443     -228.01379      103273.05    
     31000   302.72275     -16557.673      1920.4419     -10126.338      0.0013912557   101258.23    
     31500   305.05706     -16689.884      1926.2449     -10217.963     -317.34435      99671.531    
     32000   297.84562     -16648.379      1932.3075     -10277.853      149.67667      98364.868    
     32500   298.19528     -16792.898      1944.6085     -10404.861     -331.97657      96336.441    
     33000   297.72258     -16836.936      1954.2585     -10446.292     -105.75904      94919.518    
     33500   305.94579     -16872.979      1922.7336     -10391.326     -668.51975      92607.094    
     34000   292.38867     -16991.815      1870.0879     -10764.823     -205.81027      90158.642    
     34500   300.15684     -16964.817      1976.1067     -10516.052      44.700022      88543.659    
     35000   300.62468     -16980.392      1987.8893     -10512.873     -160.77629      86894.405    
     35500   294.79517     -17110.376      1962.4083     -10755.204      57.725976      85396.798    
     36000   298.28638     -17065.867      1977.3492     -10643.732      541.83609      83963.255    
     36500   296.07457     -17243.643      1951.4852     -10880.33      -512.69983      83660.04     
     37000   300.42365     -17287.922      1996.3076     -10814.98       44.803213      83147.682    
     37500   304.51641     -17338.928      1997.3453     -10803.962     -168.55841      81355.279    
     38000   303.7873      -17301.322      2012.4731     -10762.093      130.19656      81250.432    
     38500   307.38949     -17326.117      1969.7312     -10775.954     -49.4324        81416.209    
     39000   304.39274     -17438.011      1962.4626     -10939.77       148.47403      80330.71     
     39500   308.05846     -17417.804      2063.5845     -10763.819     -98.391333      78285.523    
     40000   299.823       -17478.483      2059.2446     -10951.555     -110.3672       78113.054    
     40500   295.78889     -17411.201      2036.4127     -10967.217     -453.46891      78391.587    
     41000   298.70419     -17559.153      2080.6048     -11027.536      211.13505      76773.705    
     41500   303.66342     -17633.709      2064.7132     -11044.086      596.78912      76215.738    
     42000   298.48557     -17618.193      2057.6958     -11112.743     -254.94762      74943.863    
     42500   298.12688     -17627.718      2096.0907     -11089.218     -353.644        74410.668    
     43000   298.10891     -17648.819      2017.6171     -11189.061     -87.216614      73255.463    
     43500   294.01618     -17659.025      2061.9019     -11215.968      73.133148      72419.708    
     44000   302.36089     -17665.895      2080.8177     -11079.577     -269.07322      72344.812    
     44500   301.84791     -17755.115      2075.2962     -11181.962     -319.5149       71118.218    
     45000   295.86096     -17859.34       2008.4571     -11442.238      183.18176      70689.28     
     45500   304.73787     -17777.985      2088.469      -11148.596      359.75122      69791.248    
     46000   306.29446     -17750.253      2119.2266     -11066.911     -106.09668      69714.196    
     46500   296.17363     -17828.511      2068.8838     -11346.323     -63.302274      69803.81     
     47000   296.93746     -17790.642      2122.8402     -11243.117     -408.08409      69553.179    
     47500   300.29975     -17846.546      2153.2425     -11218.516     -89.108078      69033.949    
     48000   309.89969     -17927.134      2139.5018     -11169.795      557.54447      68321.427    
     48500   299.46765     -17991.11       2070.791      -11457.93      -43.244703      67767.176    
     49000   300.3466      -17943.036      2155.3464     -11312.204      28.942124      67523.165    
     49500   296.49393     -17964.283      2151.5017     -11394.705     -227.0188       66742.78     
     50000   300.86571     -18000.458      2163.1061     -11354.132     -283.90404      67064.367    
     50500   299.73486     -18067.607      2164.0607     -11437.176      269.82184      66814.082    
     51000   294.84786     -18018.591      2215.9593     -11409.083      427.26713      66584.5      
     51500   299.99279     -18087.154      2177.1903     -11439.751     -56.180911      66417.56     
     52000   300.40678     -18089.004      2147.2667     -11465.355     -402.76146      66765.041    
     52500   300.63851     -18082.077      2102.3154     -11499.926     -51.636978      66485.302    
     53000   301.42136     -18162.817      2121.6334     -11549.683      409.73558      66023.348    
     53500   301.26139     -18219.275      2164.7739     -11565.385     -210.66657      65810.355    
     54000   299.46829     -18167.465      2176.2515     -11528.816     -775.36608      66864.426    
     54500   303.35228     -18163.725      2190.2635     -11453.188     -806.23029      66943.306    
     55000   291.77718     -18214.197      2168.6883     -11697.717      1008.208       66797.128    
     55500   298.57836     -18190.086      2207.2561     -11533.693      260.39063      66757.353    
     56000   294.41354     -18072.409      2185.0308     -11500.302     -571.80511      67267.423    
     56500   294.04561     -18217.303      2230.2072     -11605.502     -669.07445      66234.513    
     57000   296.18641     -18169.854      2218.0537     -11538.306      317.58548      66274.944    
     57500   297.044       -18324.125      2186.4224     -11711.429     -467.91461      65926.408    
     58000   297.99558     -18349.508      2157.5328     -11751.523     -721.83678      66102.601    
     58500   304.88998     -18213.931      2238.3644     -11432.38       506.38747      66684.573    
     59000   302.06255     -18214.369      2265.1467     -11448.167     -793.31634      66334.356    
     59500   301.19135     -18256.125      2291.0126     -11477.039      320.9197       65985.49     
     60000   304.86349     -18299.136      2223.1027     -11533.241      28.415809      66419.531    
     60500   298.75272     -18282.021      2205.568      -11624.718     -253.88526      65810.51     
     61000   300.03658     -18330.535      2287.3706     -11572.298     -355.1465       65872.178    
     61500   299.05046     -18230.058      2285.9651     -11487.921     -46.266501      66405.171    
     62000   300.23579     -18318.694      2210.1041     -11634.756     -433.19881      65843.02     
     62500   301.11903     -18291.533      2247.4162     -11557.121      614.57772      65667.207    
     63000   304.049       -18296.89       2291.5451     -11474.69       79.783812      65859.212    
     63500   301.18661     -18312.524      2296.7845     -11527.737     -16.030693      66139.759    
     64000   306.04671     -18387.548      2296.6168     -11530.508     -720.54737      66507.924    
     64500   303.1292      -18353.296      2310.6677     -11525.679      5.2215642      65586.505    
     65000   300.8902      -18381.788      2231.0082     -11667.194     -285.2982       65155.578    
     65500   295.15837     -18467.867      2230.3583     -11839.333     -23.797462      65090.822    
     66000   304.96326     -18375.433      2294.2704     -11536.884      145.10853      66014.335    
     66500   296.44483     -18319.122      2323.5588     -11578.218     -917.95026      66247.093    
     67000   298.3103      -18393.502      2321.7452     -11626.615      410.99297      66090.509    
     67500   296.93927     -18362.942      2314.825      -11623.405     -48.622112      66196.888    
     68000   299.56425     -18449.804      2240.9993     -11744.977     -92.751739      65460.44     
     68500   301.03518     -18475.739      2238.9548     -11751.038     -340.86201      65466.997    
     69000   301.244       -18420.814      2297.5781     -11634.379      1106.7808      65198.721    
     69500   306.64058     -18447.765      2241.2252     -11637.267     -706.20557      65486.783    
     70000   301.50544     -18553.159      2284.6472     -11775.758      732.91523      64427.303    
     70500   302.281       -18456.545      2301.9508     -11650.284      456.63112      65450.608    
     71000   296.39427     -18571.684      2259.3233     -11895.769     -430.02302      65305.467    
     71500   294.5579      -18527.32       2308.7472     -11829.345     -198.03366      65257.234    
     72000   296.85597     -18474.659      2309.7728     -11741.414     -163.43411      65599.952    
     72500   299.61464     -18461.699      2287.9812     -11709.139      725.65022      65695.584    
     73000   299.46309     -18510.977      2294.2309     -11754.425      400.54051      65441.03     
     73500   297.3312      -18461.316      2316.1701     -11714.593     -316.14555      65825.907    
     74000   303.77206     -18487.983      2273.0511     -11688.403      1007.1908      65614.699    
     74500   297.35081     -18511.653      2275.8035     -11805.005     -364.58622      65810.786    
     75000   304.51332     -18503.8        2282.8045     -11683.422      16.67016       65309.19     
     75500   302.94273     -18476.862      2345.4036     -11617.288     -241.61571      65470.574    
     76000   300.7703      -18456.998      2270.4376     -11704.761     -768.61901      66230.814    
     76500   302.99128     -18432.487      2229.0477     -11688.545     -422.73372      65863.475    
     77000   293.11867     -18473.237      2308.2846     -11797.171      622.32368      65466.997    
     77500   302.15224     -18496.873      2321.5796     -11672.902      649.59219      65551.015    
     78000   300.82449     -18539.932      2305.6545     -11751.671     -22.50138       65186.126    
     78500   295.86519     -18473.824      2273.9972     -11791.119      285.3106       65111.194    
     79000   296.78987     -18600.722      2290.0812     -11888.155      728.24814      64980.97     
     79500   300.06982     -18559.844      2294.272      -11794.21      -220.15266      64784.855    
     80000   300.71586     -18446.245      2289.2042     -11676.053     -1111.0729      65740.575    
     80500   300.35634     -18522.106      2301.3649     -11745.11      -654.24147      65200.901    
     81000   294.18451     -18650.295      2308.8215     -11957.809     -533.25049      64521.321    
     81500   294.33902     -18553.167      2305.739      -11861.462      120.7348       65389.875    
     82000   294.75143     -18550.659      2337.0912     -11821.456      6.3339795      65205.562    
     82500   303.99306     -18554.074      2306.728      -11717.524     -259.20708      64350.482    
     83000   298.64626     -18505.247      2342.5568     -11712.541     -201.22101      65169.492    
     83500   293.39697     -18470.931      2353.6486     -11745.354      473.84694      65387.638    
     84000   291.96421     -18478.553      2314.5298     -11813.444     -60.084022      65251.213    
     84500   296.8729      -18511.494      2268.323      -11819.447     -21.730766      65881.1      
     85000   295.71358     -18480.854      2266.5801     -11807.826      647.13479      65385.381    
     85500   302.15153     -18516.241      2349.4604     -11664.4        678.84891      65199.543    
     86000   298.36604     -18456.968      2322.3426     -11688.652     -629.2731       65793.573    
     86500   297.25685     -18530.126      2337.0161     -11763.665      604.66004      65402.892    
     87000   303.80832     -18562.865      2311.4729     -11724.324      913.52335      65173.444    
     87500   300.12092     -18460.417      2310.1726     -11678.121     -699.26772      65851.986    
     88000   300.02816     -18584.426      2302.9369     -11810.748      495.62166      64615.579    
     88500   298.78598     -18671.81       2318.5979     -11900.982     -843.37838      64604.28     
     89000   295.99641     -18638.04       2322.6483     -11904.729      0.72511558     65360.292    
     89500   302.17981     -18653.125      2290.2457     -11860.077      1064.3102      64711.338    
     90000   298.67857     -18615.5        2400.6267     -11764.243      325.20175      65228.689    
     90500   306.09989     -18649.242      2343.7508     -11744.275      955.67008      64777.524    
     91000   296.5127      -18679.526      2320.097      -11941.073     -396.70105      64330.859    
     91500   301.12825     -18581.711      2355.1949     -11739.383     -361.24634      65132.374    
     92000   305.64874     -18640.317      2331.0733     -11754.75       246.60992      64564.655    
     92500   302.94262     -18551.683      2364.3959     -11673.118      241.1653       64407.824    
     93000   300.66814     -18582.437      2380.6231     -11721.537      915.34597      65191.212    
     93500   297.52035     -18611.464      2330.4724     -11847.62      -1105.0038      65624.67     
     94000   302.92289     -18662.267      2372.5439     -11775.848      648.07222      64937.949    
     94500   299.92801     -18676.581      2348.0225     -11859.31      -475.06943      64736.265    
     95000   303.58898     -18649.276      2401.6601     -11723.815      130.49264      65278.908    
     95500   306.00209     -18626.326      2395.8628     -11670.705     -270.03302      65090.265    
     96000   304.77092     -18640.49       2334.807      -11764.27       329.58708      64117.796    
     96500   303.98159     -18657.104      2357.204      -11770.249     -354.06431      64868.16     
     97000   298.28326     -18627.555      2422.7185     -11760.097     -443.98401      65086.85     
     97500   305.01856     -18768.57       2336.5594     -11886.907     -245.62751      65150.867    
     98000   297.78362     -18646.435      2403.5442     -11805.596      292.15004      64709.728    
     98500   297.17027     -18579.955      2381.0057     -11770.794      180.33928      65579.244    
     99000   299.25564     -18700.001      2297.7517     -11943.021      645.78775      65027.073    
     99500   294.07956     -18667.303      2417.5088     -11867.694      671.03559      64632.95     
    100000   294.17638     -18694.14       2309.9523     -12000.645      75.168803      65567.053    
    100500   302.10549     -18643.044      2379.5372     -11761.812      558.55416      65054.94     
    101000   302.15202     -18613.298      2354.9012     -11756.008     -163.8386       65019.741    
Loop time of 1942.48 on 8 procs for 100000 steps with 6000 atoms

Performance: 4.448 ns/day, 5.396 hours/ns, 51.481 timesteps/s
98.6% CPU use with 8 MPI tasks x no OpenMP threads

MPI task timing breakdown:
Section |  min time  |  avg time  |  max time  |%varavg| %total
---------------------------------------------------------------
Pair    | 1124.6     | 1285.5     | 1515.9     | 306.1 | 66.18
Bond    | 10.349     | 12.498     | 16.775     |  56.9 |  0.64
Kspace  | 241.66     | 469.95     | 628.59     | 503.9 | 24.19
Neigh   | 59.878     | 59.899     | 59.935     |   0.3 |  3.08
Comm    | 22.564     | 25.098     | 32.319     |  72.5 |  1.29
Output  | 0.26542    | 0.26604    | 0.27007    |   0.3 |  0.01
Modify  | 68.738     | 83.658     | 89.314     |  83.9 |  4.31
Other   |            | 5.57       |            |       |  0.29

Nlocal:            750 ave         777 max         733 min
Histogram: 3 1 1 0 0 0 0 1 1 1
Nghost:        12152.5 ave       12265 max       12040 min
Histogram: 1 0 1 1 2 0 0 1 1 1
Neighs:         425075 ave      459099 max      374083 min
Histogram: 1 0 0 1 1 1 1 0 0 3

Total # of neighbors = 3400601
Ave neighs/atom = 566.76683
Ave special neighs/atom = 6.2
Neighbor list builds = 5363
Dangerous builds = 1
System init for write_data ...
PPPM initialization ...
  extracting TIP4P info from pair style
  using 12-bit tables for long-range coulomb (../kspace.cpp:342)
  G vector (1/distance) = 0.25264348
  grid = 45 24 24
  stencil order = 5
  estimated absolute RMS force accuracy = 0.0027659116
  estimated relative force accuracy = 8.3294606e-06
  using double precision KISS FFT
  3d grid and FFT values/proc = 10469 3312
Generated 10 of 10 mixed pair_coeff terms from geometric mixing rule
Total wall time: 0:32:28
LAMMPS (23 Jun 2022 - Update 4)
Reading data file ...
  orthogonal box = (-40 -19.254357 -19.254357) to (40 9.2543569 9.2543569)
  4 by 1 by 1 MPI processor grid
  reading atoms ...
  6000 atoms
  reading velocities ...
  6000 velocities
  scanning bonds ...
  23 = max bonds/atom
  scanning angles ...
  26 = max angles/atom
  scanning dihedrals ...
  27 = max dihedrals/atom
  scanning impropers ...
  22 = max impropers/atom
  reading bonds ...
  5600 bonds
  reading angles ...
  5800 angles
  reading dihedrals ...
  6000 dihedrals
  reading impropers ...
  1200 impropers
Finding 1-2 1-3 1-4 neighbors ...
  special bond factors lj:    0        0        0.5     
  special bond factors coul:  0        0        1       
     4 = max # of 1-2 neighbors
    12 = max # of 1-3 neighbors
    30 = max # of 1-4 neighbors
  14000 = # of 1-3 neighbors before angle trim
  11600 = # of 1-3 neighbors after angle trim
  19600 = # of 1-4 neighbors before dihedral trim
  10800 = # of 1-4 neighbors after dihedral trim
    33 = max # of special neighbors
  special bonds CPU = 0.003 seconds
  read_data CPU = 0.130 seconds
Setting atom values ...
  6000 settings made for image
3000 atoms in group H2O
3000 atoms in group tol
Finding SHAKE clusters ...
       0 = # of size 2 clusters
       0 = # of size 3 clusters
       0 = # of size 4 clusters
    1000 = # of frozen angles
  find clusters CPU = 0.001 seconds
PPPM initialization ...
  extracting TIP4P info from pair style
  using 12-bit tables for long-range coulomb (../kspace.cpp:342)
  G vector (1/distance) = 0.25264348
  grid = 45 24 24
  stencil order = 5
  estimated absolute RMS force accuracy = 0.0027659116
  estimated relative force accuracy = 8.3294606e-06
  using double precision KISS FFT
  3d grid and FFT values/proc = 17298 6912
WARNING: Communication cutoff 0 is shorter than a bond length based estimate of 5.42. This may lead to errors. (../comm.cpp:727)
WARNING: Increasing communication cutoff to 15.1118 for TIP4P pair style (../pair_lj_cut_tip4p_long.cpp:484)
Generated 10 of 10 mixed pair_coeff terms from geometric mixing rule
Neighbor list info ...
  update every 1 steps, delay 10 steps, check yes
  max neighbors/atom: 2000, page size: 100000
  master list distance cutoff = 14.3092
  ghost atom cutoff = 15.1118
  binsize = 7.1546, bins = 12 4 4
  1 neighbor lists, perpetual/occasional/extra = 1 0 0
  (1) pair lj/cut/tip4p/long, perpetual
      attributes: half, newton on
      pair build: half/bin/newton
      stencil: half/bin/3d
      bin: standard
Setting up Verlet run ...
  Unit style    : real
  Current step  : 0
  Time step     : 1
WARNING: Inconsistent image flags (../domain.cpp:819)
Per MPI rank memory allocation (min/avg/max) = 40.82 | 40.86 | 40.92 Mbytes
   Step          Temp          E_pair         E_mol          TotEng         Press     
         0   1988.433      -8882.4091      15298.175      36045.544      25696.1      
        50   2027.5723     -9128.9152      14936.043      36020.123      25169.379    
       100   1990.842      -8632.8656      14979.399      36012.208      26321.689    
       150   2027.1112     -9079.0896      14867.391      35994.427      24774.26     
       200   1998.8406     -8992.3494      15155.73       35948.243      22677.364    
       250   2017.2672     -8752.1327      14613.846      35921.152      26888.6      
       300   1992.3966     -8767.9891      15066.215      35987.067      24996.13     
       350   2011.4184     -8822.8906      14775.243      35924.638      23805.934    
       400   1981.4492     -8767.786       15147.453      35905.379      25887.89     
       450   1986.0478     -8890.0275      15275.398      35979.607      25744.194    
       500   1991.4107     -8616.2438      14935.089      35992.995      24565.804    
       550   2016.6528     -8811.4231      14769.653      36008.514      26511.251    
       600   1996.3602     -8856.9994      15077.1        35968.003      27327.185    
       650   1990.1501     -8837.822       15180.552      35998.095      25074.859    
       700   1994.581      -8952.0742      15232.215      36001.531      25099.442    
       750   1970.9541     -8590.4954      15297.288      36076.116      28717.458    
       800   1986.4968     -8931.2008      15462.16       36131.887      22659.677    
       850   1996.2265     -9042.1145      15446.307      36150.103      24049.781    
       900   1991.0937     -8837.5815      15338.716      36170.56       25767.566    
       950   2003.6174     -8971.9462      15299.224      36183.321      26924.922    
      1000   1973.354      -8575.7192      15359.479      36188.845      22906.167    
      1050   2010.7466     -8808.3616      15049.746      36203.659      25944.282    
      1100   1993.2094     -8773.919       15320.883      36247.916      25845.06     
      1150   1997.3895     -8901.1171      15404.132      36266.255      24599.64     
      1200   2015.183      -8705.7864      14857.608      36180.203      27364.55     
      1250   2009.6205     -8837.3024      15145.275      36253.467      27458.816    
      1300   2017.5928     -8948.826       15076.969      36192.435      23718.459    
      1350   2025.5892     -8965.9207      14951.478      36169.003      25031.603    
      1400   1999.202      -8801.2897      15167.883      36156.842      24644.66     
      1450   1963.7779     -8539.3098      15496.586      36219.667      24634.056    
      1500   2000.2709     -8727.3821      15186.949      36265.743      23793.573    
      1550   1995.3641     -8628.5798      15238.518      36342.996      24445.426    
      1600   1986.873      -8758.0795      15510.864      36359.317      25535.084    
      1650   1994.0981     -8718.5512      15379.485      36375.127      23394.072    
      1700   2008.8402     -8771.4735      15161.644      36324.038      24695.062    
      1750   1975.8885     -8703.966       15620.324      36359.209      23853.709    
      1800   2010.1111     -8808.8382      15160.905      36304.872      24027.086    
      1850   1995.9531     -8729.1947      15264.34       36276.982      27859.696    
      1900   1991.8466     -8794.4522      15368.241      36254.433      25101.37     
      1950   1993.0763     -8752.7499      15320.049      36266.268      25536.769    
      2000   1983.3257     -8789.8772      15462.074      36225.871      27982.651    
      2050   1996.0374     -8752.9162      15273.884      36264.06       26824.711    
      2100   2015.7434     -8764.472       14975.289      36247.55       24706.77     
      2150   2003.2188     -8787.6126      15152.116      36214.606      24930.453    
      2200   2019.2935     -8809.8427      14942.055      36221.845      25376.139    
      2250   1998.5732     -8926.9089      15343.679      36197.647      27083.257    
      2300   1985.0865     -8762.6466      15347.587      36164.852      23132.99     
      2350   2000.5445     -8532.3187      14904.65       36182.583      24339.954    
      2400   1971.83       -8524.2305      15373.287      36231.432      26895.102    
      2450   2007.6421     -8576.4578      14868.408      36207.964      26468.876    
      2500   2006.8581     -8617.7837      14924.982      36211.53       23473.642    
      2550   2038.0914     -8982.588       14760.539      36147.693      25685.238    
      2600   2011.6872     -8793.7177      14966.976      36149.549      25193.104    
      2650   1999.0799     -8721.809       15048.248      36114.867      25238.889    
      2700   1992.0249     -8620.1017      15134.241      36197.441      25097.543    
      2750   1986.6399     -8606.8502      15246.185      36242.395      27003.995    
      2800   2008.517      -8715.7263      14985.326      36198.651      25840.537    
      2850   1978.9652     -8630.7555      15282.549      36140.491      25477.352    
      2900   2014.4216     -8879.9251      14982.927      36120.037      26216.984    
      2950   1991.3305     -8845.9615      15331.758      36158.751      24512.938    
      3000   2000.5421     -8723.2049      15047.036      36134.047      20580.772    
      3050   1996.9774     -8720.0765      15121.841      36158.863      22483.974    
      3100   1995.3402     -8617.789       15086.42       36201.334      24858.553    
      3150   1991.5973     -8637.7481      15203.826      36243.007      26508.526    
      3200   2000.1165     -8889.98        15395.369      36309.263      24753.49     
      3250   1971.2359     -8623.0889      15571.314      36321.747      27853.132    
      3300   1990.9301     -8584.8092      15216.889      36299.067      25415.953    
      3350   2009.6324     -8674.6447      15027.36       36298.388      24382.286    
      3400   2005.1613     -8732.1517      15114.616      36261.512      25712.524    
      3450   1986.639      -8490.2184      15126.442      36239.269      24227.93     
      3500   2015.3412     -8813.2411      15049.729      36267.226      23598.835    
      3550   2008.2791     -8529.0553      14800.092      36196.543      24717.896    
      3600   1997.9772     -8736.6783      15146.965      36182.284      26401.983    
      3650   1973.436      -8515.4651      15290.613      36181.454      25010.068    
      3700   2003.4407     -8789.3336      15089.36       36153.435      27615.556    
      3750   2003.1744     -8580.0175      14882.922      36152.345      25462.034    
      3800   1992.5794     -8492.7363      14961.374      36160.202      27314.579    
      3850   1994.7932     -8404.1158      14976.072      36296.507      26059.622    
      3900   1987.1978     -8644.4164      15334.19       36301.146      24452.188    
      3950   2001.2407     -8421.3739      14928.019      36327.272      25595.829    
      4000   2019.3399     -8644.4601      14851.951      36297.815      26204.92     
      4050   2016.638      -8767.3207      14946.371      36229.114      25043.005    
      4100   1997.3792     -8762.1535      15200.209      36201.141      25195.78     
      4150   2005.318      -8695.5769      14906.878      36092.684      24761.609    
      4200   1965.0721     -8412.351       15339.797      36209.122      24658.361    
      4250   1985.7969     -8728.0125      15306.15       36168.635      27861.248    
      4300   1964.2708     -8523.9598      15468.127      36213.903      27040.518    
      4350   2021.0516     -8777.3608      14908.339      36246.808      25175.158    
      4400   1989.2197     -8868.9693      15438.57       36211.101      28550.529    
      4450   2003.5284     -8661.464       15056.38       36249.632      25462.796    
      4500   1999.7516     -8671.7404      15096.074      36222.77       28178.755    
      4550   2011.9963     -8655.8383      14845.258      36170.316      26315.804    
      4600   1995.6303     -8440.8043      14881.531      36177.753      26250.306    
      4650   1988.3601     -8661.6095      15309.709      36276.791      24312.68     
      4700   2020.2291     -8628.5713      14721.731      36196.733      24707.565    
      4750   2001.3348     -8552.8302      14891.184      36160.383      25060.305    
      4800   1996.2393     -8523.2057      14969.925      36192.82       24978.933    
      4850   1981.425      -8759.6736      15406.271      36171.949      24991.752    
      4900   2008.1828     -8604.4834      14854.199      36173.787      26894.974    
      4950   1983.4681     -8710.2504      15355.904      36201.449      22403.497    
      5000   1990.505      -8411.3957      14913.539      36162.797      25329.194    
      5050   2008.5728     -8655.9613      14955.209      36229.13       27490.531    
      5100   2039.56       -8733.0866      14531.532      36190.071      22628.523    
      5150   2043.0545     -8798.2187      14462.609      36108.088      25893.393    
      5200   2007.8343     -8667.3459      14800.747      36052.279      24131.862    
      5250   2024.7149     -8791.578       14663.374      36042.213      26071.041    
      5300   2012.9882     -8746.2196      14782.321      36031.778      24814.995    
      5350   1988.7052     -8687.8399      15103.409      36049.402      25004.716    
      5400   2004.0141     -8577.7906      14791.17       36075.333      24872.303    
      5450   1975.5637     -8726.0321      15354.971      36066.951      26685.238    
      5500   1980.4727     -8675.9284      15239.359      36074.591      24592.627    
      5550   1998.502      -8678.6766      14997.846      36098.987      26127.14     
      5600   2006.0961     -8728.5359      14956.262      36120.703      26940.74     
      5650   1982.8488     -8666.9784      15274.544      36154.133      25785.281    
      5700   2022.1193     -8857.3952      14876.433      36150.778      25491.2      
      5750   2011.2082     -8696.0284      14826.319      36099.443      25802.866    
      5800   1998.9075     -8730.4897      15095.758      36151.127      25929.917    
      5850   2001.2891     -8616.9395      14933.682      36138.091      23212.732    
      5900   1997.4226     -8679.6136      15047.63       36131.749      25592.756    
      5950   1971.9246     -8696.8972      15475.592      36162.48       26673.054    
      6000   2016.8661     -8768.5146      14904.835      36189.781      24610.984    
      6050   2004.413      -8742.3457      15085.389      36210.94       24367.734    
      6100   1985.1773     -8605.2148      15267.568      36243.619      23812.113    
      6150   1987.2301     -8584.9307      15250.847      36277.77       24168.756    
      6200   2025.1842     -8569.1212      14685.658      36293.947      24943.926    
      6250   2014.2214     -8614.5831      14941.368      36340.838      23378.323    
      6300   2024.6237     -8779.3633      14933.578      36323.273      25222.491    
      6350   1993.3466     -8738.6863      15399.614      36363.923      24131.743    
      6400   2005.8909     -8637.5728      15058.561      36310.908      25368.985    
[...]
     23200   300.21928     -17978.561      2302.247      -11202.725      817.42775    
     23250   299.79872     -17979.87       2306.2656     -11206.282     -101.13321    
     23300   299.59845     -18000.11       2324.525      -11211.247      190.40839    
     23350   300.46509     -18034.059      2323.8909     -11232.917     -331.18865    
     23400   301.56439     -18047.179      2302.5573     -11250.99       701.35852    
     23450   300.12384     -18040.729      2304.542      -11264.021      588.09401    
     23500   295.97388     -17936.274      2286.0531     -11239.894     -1026.2709    
     23550   297.51471     -17991.122      2335.5052     -11222.33       596.49761    
     23600   297.6507      -17970.85       2325.9728     -11209.564     -407.78138    
     23650   294.25426     -17957.785      2384.7374     -11188.345      53.271578    
     23700   300.21727     -17978.99       2314.2616     -11191.17       123.55571    
     23750   300.25318     -17969.134      2313.4311     -11181.61       558.67427    
     23800   300.9235      -18005.127      2332.7441     -11188.301      389.75253    
     23850   298.74339     -17952.525      2311.7498     -11189.179     -298.24887    
     23900   297.17225     -17947.42       2332.0569     -11187.178      353.95504    
     23950   296.6646      -17959.83       2366.2014     -11173.008     -603.33904    
     24000   297.49047     -17954.957      2356.3985     -11165.633      791.0563     
     24050   295.99899     -17913.526      2338.7281     -11164.096     -1.7699077    
     24100   299.98253     -17966.534      2344.6677     -11151.806     -799.59488    
     24150   303.07486     -17982.184      2312.432      -11153.613      306.83292    
     24200   302.22513     -18018.173      2349.7454     -11164.95      -561.49496    
     24250   300.86153     -17992.821      2329.5056     -11180.157     -621.06234    
     24300   296.35548     -17912.604      2320.3005     -11176.29      -392.6013     
     24350   298.11283     -17933.063      2332.8321     -11158.031      109.30927    
     24400   298.28436     -17946.7        2361.2378     -11140.706     -473.95416    
     24450   301.27943     -17958.094      2325.4444     -11143.263     -106.38031    
     24500   304.90583     -18000.804      2296.8909     -11160.49      -327.46116    
     24550   298.03906     -17933.64       2328.7234     -11163.816     -132.64969    
     24600   297.22926     -17947.077      2367.0563     -11150.987     -269.42624    
     24650   303.17971     -17992.41       2315.5344     -11159.174      2.259436     
     24700   297.73792     -17936.557      2339.0854     -11160.858     -227.10929    
     24750   297.55889     -17926.401      2333.9157     -11158.539     -27.690001    
     24800   296.61776     -17918.602      2345.4943     -11153.186      68.413193    
     24850   298.11933     -17939.093      2361.1046     -11135.691     -264.24417    
     24900   299.68087     -17976.634      2381.1504     -11129.918      265.58329    
     24950   299.94171     -17939.436      2336.4657     -11133.518     -444.25939    
     25000   299.31366     -17935.94       2334.762      -11141.085      9.9856132    
     25050   303.56078     -17970.809      2294.1572     -11153.272     -663.23258    
     25100   297.96853     -17934.948      2342.7744     -11152.124     -290.34806    
     25150   301.69975     -17950.871      2305.0845     -11150.137      118.78878    
     25200   299.82605     -17924.073      2312.7207     -11143.624     -329.70777    
     25250   303.95663     -17977.633      2301.3638     -11146.991      96.415762    
     25300   302.47088     -17968.219      2312.4356     -11148.644     -489.94136    
     25350   301.57616     -17944.92       2296.7665     -11154.346      257.02944    
     25400   300.05623     -17942.664      2320.1581     -11151.347      411.65594    
     25450   305.76316     -17968.331      2246.7757     -11165.357     -3.907844     
     25500   303.81804     -17993.24       2299.7379     -11166.289     -454.29395    
     25550   296.9519      -17947.078      2347.2805     -11174.897     -389.57132    
     25600   299.38559     -17994.185      2370.5904     -11162.429      175.96597    
     25650   298.51745     -17913.294      2304.049      -11161.016     -904.49905    
     25700   304.87701     -18012.881      2321.1921     -11148.696     -450.68633    
     25750   300.18339     -17960.38       2331.3019     -11156.025      249.73424    
     25800   300.61343     -17998.061      2353.1253     -11165.474     -759.68858    
     25850   297.29224     -17931.11       2330.0159     -11171.122     -411.71336    
     25900   297.57798     -17940.414      2340.0841     -11166.099     -730.68901    
     25950   300.57257     -17978.163      2329.7711     -11169.539     -127.12132    
     26000   298.21922     -17954.447      2341.566      -11169.095      23.64086     
Loop time of 751.93 on 4 procs for 25000 steps with 6000 atoms

Performance: 2.873 ns/day, 8.355 hours/ns, 33.248 timesteps/s
99.1% CPU use with 4 MPI tasks x no OpenMP threads

MPI task timing breakdown:
Section |  min time  |  avg time  |  max time  |%varavg| %total
---------------------------------------------------------------
Pair    | 588.36     | 604.66     | 616.49     |  47.7 | 80.41
Bond    | 5.0296     | 5.8357     | 6.4001     |  24.1 |  0.78
Kspace  | 81.86      | 92.629     | 108.12     | 114.3 | 12.32
Neigh   | 37.314     | 37.333     | 37.36      |   0.3 |  4.96
Comm    | 4.3839     | 4.6528     | 4.9695     |  10.4 |  0.62
Output  | 0.54333    | 0.54541    | 0.55162    |   0.5 |  0.07
Modify  | 5.2806     | 5.2977     | 5.3206     |   0.6 |  0.70
Other   |            | 0.9731     |            |       |  0.13

Nlocal:           1500 ave        1521 max        1461 min
Histogram: 1 0 0 0 0 0 0 1 1 1
Nghost:        14464.8 ave       14565 max       14397 min
Histogram: 1 0 1 1 0 0 0 0 0 1
Neighs:         849227 ave      869711 max      810222 min
Histogram: 1 0 0 0 0 0 0 1 0 2

Total # of neighbors = 3396909
Ave neighs/atom = 566.1515
Ave special neighs/atom = 5.4
Neighbor list builds = 1238
Dangerous builds = 0
System init for write_data ...
PPPM initialization ...
  extracting TIP4P info from pair style
  using 12-bit tables for long-range coulomb (../kspace.cpp:342)
  G vector (1/distance) = 0.25264348
  grid = 45 24 24
  stencil order = 5
  estimated absolute RMS force accuracy = 0.0027659116
  estimated relative force accuracy = 8.3294606e-06
  using double precision KISS FFT
  3d grid and FFT values/proc = 17298 6912
Generated 10 of 10 mixed pair_coeff terms from geometric mixing rule
Total wall time: 0:13:02
LAMMPS (23 Jun 2022 - Update 4)
Reading data file ...
  orthogonal box = (-40 -19.254357 -19.254357) to (40 9.2543569 9.2543569)
  4 by 1 by 1 MPI processor grid
  reading atoms ...
  6000 atoms
  reading velocities ...
  6000 velocities
  scanning bonds ...
  23 = max bonds/atom
  scanning angles ...
  26 = max angles/atom
  scanning dihedrals ...
  27 = max dihedrals/atom
  scanning impropers ...
  22 = max impropers/atom
  reading bonds ...
  5600 bonds
  reading angles ...
  5800 angles
  reading dihedrals ...
  6000 dihedrals
  reading impropers ...
  1200 impropers
Finding 1-2 1-3 1-4 neighbors ...
  special bond factors lj:    0        0        0.5     
  special bond factors coul:  0        0        1       
     4 = max # of 1-2 neighbors
    12 = max # of 1-3 neighbors
    30 = max # of 1-4 neighbors
  14000 = # of 1-3 neighbors before angle trim
  11600 = # of 1-3 neighbors after angle trim
  19600 = # of 1-4 neighbors before dihedral trim
  10800 = # of 1-4 neighbors after dihedral trim
    33 = max # of special neighbors
  special bonds CPU = 0.003 seconds
  read_data CPU = 0.084 seconds
Setting atom values ...
  6000 settings made for image
3000 atoms in group H2O
3000 atoms in group tol
Finding SHAKE clusters ...
       0 = # of size 2 clusters
       0 = # of size 3 clusters
       0 = # of size 4 clusters
    1000 = # of frozen angles
  find clusters CPU = 0.001 seconds
PPPM initialization ...
  extracting TIP4P info from pair style
  using 12-bit tables for long-range coulomb (../kspace.cpp:342)
  G vector (1/distance) = 0.25264348
  grid = 45 24 24
  stencil order = 5
  estimated absolute RMS force accuracy = 0.0027659116
  estimated relative force accuracy = 8.3294606e-06
  using double precision KISS FFT
  3d grid and FFT values/proc = 17298 6912
WARNING: Communication cutoff 0 is shorter than a bond length based estimate of 5.42. This may lead to errors. (../comm.cpp:727)
WARNING: Increasing communication cutoff to 15.1118 for TIP4P pair style (../pair_lj_cut_tip4p_long.cpp:484)
Generated 10 of 10 mixed pair_coeff terms from geometric mixing rule
Neighbor list info ...
  update every 1 steps, delay 10 steps, check yes
  max neighbors/atom: 2000, page size: 100000
  master list distance cutoff = 14.3092
  ghost atom cutoff = 15.1118
  binsize = 7.1546, bins = 12 4 4
  1 neighbor lists, perpetual/occasional/extra = 1 0 0
  (1) pair lj/cut/tip4p/long, perpetual
      attributes: half, newton on
      pair build: half/bin/newton
      stencil: half/bin/3d
      bin: standard
Setting up Verlet run ...
  Unit style    : real
  Current step  : 0
  Time step     : 1
WARNING: Inconsistent image flags (../domain.cpp:819)
Per MPI rank memory allocation (min/avg/max) = 40.83 | 40.87 | 40.91 Mbytes
   Step          Temp          E_pair         E_mol          TotEng         Press     
         0   298.21922     -17954.447      2341.566      -11169.095      23.665791    
       500   300.98389     -17926.379      2306.9613     -11134.435      315.49416    
      1000   305.81553     -18061.273      2318.0997     -11186.195     -364.33273    
      1500   301.26548     -18019.309      2301.6283     -11228.503     -481.33614    
      2000   297.52264     -18010.079      2374.7167     -11201.957      117.30763    
      2500   300.49546     -18005.706      2315.8511     -11212.151     -1005.4394    
      3000   302.91434     -18020.885      2278.9        -11228.237     -454.85282    
      3500   298.83699     -18005.938      2309.3261     -11243.621     -260.08588    
      4000   300.38535     -18073.005      2314.4326     -11282.51      -904.25998    
      4500   297.51836     -18040.735      2337.1898     -11270.203     -21.951025    
      5000   302.31442     -18075.826      2313.2607     -11257.758     -257.90027    
      5500   298.07332     -18042.977      2367.3943     -11233.972     -32.937627    
      6000   298.63954     -18031.305      2353.0127     -11228.243      151.00843    
      6500   298.64236     -18023.644      2333.2353     -11240.318     -170.12962    
      7000   304.6121      -18070.845      2279.3928     -11252.406     -261.41526    
      7500   295.10024     -17998.684      2372.1575     -11229.217     -18.546912    
      8000   300.82887     -18087.674      2370.2048     -11234.797      359.30646    
      8500   302.38787     -18143.824      2369.7247     -11268.197     -284.69947    
      9000   297.55255     -18093.302      2343.2276     -11316.224     -212.52892    
      9500   299.80484     -18100.243      2343.7297     -11289.1       -773.64228    
     10000   300.56483     -18131.668      2323.9851     -11328.945      3.827013     
     10500   295.9525      -18096.1        2351.6365     -11334.455      1019.2074    
     11000   298.40789     -18116.627      2368.5963     -11301.434     -1328.8362    
     11500   299.59295     -18103.738      2372.991      -11266.492      385.03871    
     12000   299.67705     -18091.048      2376.1087     -11249.431     -781.16778    
     12500   298.93794     -18100.234      2333.6809     -11312.058     -211.53467    
     13000   300.37486     -18082.198      2366.6478     -11239.643     -334.06531    
     13500   295.15231     -18004.18       2381.4101     -11224.685     -728.16309    
     14000   299.80747     -18058.807      2369.9381     -11221.416     -378.8994     
     14500   302.29874     -18085.595      2338.4995     -11242.521     -45.557842    
     15000   301.29035     -18078.364      2374.3858     -11214.429      151.45727    
     15500   300.18398     -18129.179      2366.2484     -11289.868     -974.08316    
     16000   300.41414     -18058.608      2366.2247     -11215.892     -663.33822    
     16500   304.0086      -18088.449      2350.6108     -11207.785      611.15521    
     17000   299.1805      -18135.191      2394.2798     -11282.802     -850.76607    
     17500   301.02802     -18131.92       2341.1129     -11305.168     -7.3844845    
     18000   298.01793     -18152.841      2364.7095     -11347.346     -120.8044     
     18500   297.78954     -18123.15       2339.9249     -11345.842      1282.3017    
     19000   298.92659     -18092.693      2350.0577     -11288.309      939.48537    
     19500   300.24357     -18081.674      2329.7143     -11278.009     -689.26752    
     20000   301.14756     -18111.302      2331.6317     -11292.249     -201.86483    
     20500   304.89061     -18149.526      2316.6734     -11289.656     -76.764196    
     21000   300.5067      -18084.259      2319.1067     -11287.281     -605.58363    
     21500   299.88734     -18102.033      2355.684      -11277.707      506.65851    
     22000   302.9703      -18119.875      2326.5753     -11278.719     -1561.0097    
     22500   302.02726     -18201.621      2371.8538     -11329.238     -649.45383    
     23000   298.75017     -18091.316      2318.0701     -11321.549     -47.028438    
     23500   300.12045     -18186.434      2376.2484     -11338.07       380.03864    
     24000   299.44115     -18108.869      2351.3302     -11295.545      407.39912    
     24500   297.32077     -18090.814      2359.8175     -11300.599      33.000416    
     25000   295.87622     -18131.43       2409.0696     -11313.489     -62.515834    
     25500   299.17255     -18209.446      2384.5441     -11366.911      7.5367829    
     26000   302.54402     -18195.857      2341.1524     -11346.476     -637.06031    
     26500   302.5636      -18201.631      2347.1889     -11345.921      692.00878    
     27000   305.39107     -18256.505      2320.1624     -11385.689      81.205298    
     27500   300.99096     -18200.218      2329.7742     -11385.357     -461.07604    
     28000   299.47129     -18150.113      2315.0271     -11372.643      424.96465    
     28500   301.93796     -18150.741      2324.7897     -11326.753      64.867762    
     29000   297.89779     -18105.423      2365.3057     -11301.122     -764.25498    
     29500   297.61973     -18167.073      2412.062      -11320.159     -131.69073    
     30000   301.16242     -18113.326      2335.4833     -11290.2        153.51434    
     30500   299.20418     -18135.965      2332.6267     -11344.877     -695.0738     
     31000   299.1572      -18160.341      2367.1701     -11335.408     -710.44548    
     31500   297.91834     -18157.412      2348.0044     -11370.105     -871.25486    
     32000   298.08444     -18161.094      2400.7425     -11318.575     -717.56849    
     32500   297.90357     -18157.614      2382.8917     -11335.641      152.29865    
     33000   296.77329     -18082.265      2344.4427     -11315.583     -251.96793    
     33500   298.72171     -18130.078      2353.2272     -11325.578     -896.47842    
     34000   300.97224     -18192.748      2358.6827     -11349.257     -177.22558    
     34500   300.60852     -18218.652      2360.559      -11378.704      980.20233    
     35000   298.59286     -18173.911      2397.8077     -11326.75       171.02568    
     35500   298.04626     -18164.536      2361.7872     -11361.54       109.70504    
     36000   304.0036      -18250.692      2369.1131     -11351.601      577.84093    
     36500   297.64529     -18179.579      2371.8734     -11372.472     -1121.2432    
     37000   298.86464     -18233.592      2359.6596     -11420.53       689.65034    
     37500   299.70012     -18239.871      2364.79       -11409.228      445.33025    
     38000   298.37884     -18170.011      2341.8111     -11382.036     -525.74564    
     38500   300.82531     -18192.83       2356.3438     -11353.867      234.45238    
     39000   299.7904      -18241.267      2401.281      -11372.789     -1236.2549    
     39500   297.0512      -18187.004      2409.4987     -11351.125     -630.33142    
     40000   301.40355     -18190.008      2366.4395     -11332.333     -71.026065    
     40500   296.16004     -18196.331      2411.1126     -11372.117      360.11742    
     41000   298.83756     -18202.426      2369.5568     -11379.87      -685.34527    
     41500   297.60707     -18239.202      2417.6651     -11386.873      365.04781    
     42000   300.90375     -18227.71       2368.7315     -11375.191      625.0224     
     42500   297.48647     -18194.426      2359.1589     -11402.4       -327.4357     
     43000   298.60892     -18228.14       2373.463      -11405.085     -98.370584    
     43500   301.46625     -18163.818      2334.4683     -11337.18       307.87834    
     44000   297.54034     -18167.004      2387.6844     -11345.65      -964.62158    
     44500   300.17474     -18242.312      2350.0323     -11419.355      390.35934    
     45000   297.2656      -18212.046      2335.7362     -11446.734      100.81315    
     45500   297.17521     -18209.517      2366.5397     -11414.749      185.17427    
     46000   298.37091     -18215.147      2408.5934     -11360.508     -36.850106    
     46500   300.37425     -18251.401      2384.9329     -11390.571     -1194.2805    
     47000   296.424       -18156.752      2367.0318     -11372.685     -640.64808    
     47500   304.5775      -18241.887      2329.362      -11373.994      742.54316    
     48000   302.02983     -18222.587      2340.0464     -11381.973     -263.51809    
     48500   299.87644     -18220.3        2348.3075     -11403.513     -381.95233    
     49000   299.11975     -18254.315      2372.4903     -11424.621     -376.5261     
     49500   300.37106     -18282.601      2370.6383     -11436.113      573.48232    
     50000   302.19323     -18262.514      2339.0096     -11420.502     -371.65568    
     50500   297.70003     -18198.191      2392.4211     -11369.721      431.35918    
     51000   300.05412     -18215.425      2379.0817     -11365.216      686.71427    
     51500   300.2696      -18259.028      2360.4674     -11424.223      95.582184    
     52000   299.04423     -18240.468      2346.2589     -11438.13      -57.636749    
     52500   298.85913     -18224.515      2386.7355     -11384.459     -214.08187    
     53000   297.38772     -18162.599      2375.6967     -11355.507      284.53897    
     53500   300.08845     -18204.705      2392.9459     -11340.121     -729.05989    
     54000   297.97647     -18244.708      2402.3352     -11402.204     -674.28109    
     54500   297.81138     -18228.677      2377.8572     -11413.112     -181.73961    
     55000   297.50323     -18212.4        2407.6827     -11371.6        533.97976    
     55500   299.69487     -18241.933      2386.8585     -11389.301     -408.11539    
     56000   301.14398     -18248.926      2372.9197     -11388.639      753.40787    
     56500   299.1725      -18223.6        2378.005      -11387.605     -356.98975    
     57000   304.14448     -18284.011      2370.8992     -11381.034     -232.41301    
     57500   294.4119      -18231.186      2429.7476     -11414.386      1045.1539    
     58000   298.09895     -18260.611      2414.9995     -11403.618     -13.783071    
     58500   301.51903     -18287.644      2354.5323     -11440.156     -193.06616    
     59000   299.59758     -18229.502      2356.7535     -11408.424     -506.36943    
