LAMMPS data file via write_data, version 23 Jun 2022, timestep = 26000

6000 atoms
5 atom types
5600 bonds
6 bond types
5800 angles
5 angle types
6000 dihedrals
3 dihedral types
1200 impropers
1 improper types

-40 40 xlo xhi
-19.254356934690747 9.254356934691073 ylo yhi
-19.254356934690747 9.254356934691073 zlo zhi

Masses

1 15.9994
2 1.008
3 12.011
4 1.008
5 12.011

Pair Coeffs # lj/cut/tip4p/long

1 0.1852 3.1589
2 0 0
3 0.0663016 3.58118
4 0.0282937 2.37341
5 0.0734574 3.52053

Bond Coeffs # harmonic

1 0 0.9572
2 349.274 1.09
3 399.904 1.39
4 400.057 1.4
5 299.844 1.52
6 0 0

Angle Coeffs # harmonic

1 0 104.52
2 50.1709 108
3 45.1871 120
4 50.1166 120
5 55.0234 111.4

Dihedral Coeffs # harmonic

1 9.99044 -1 2
2 0.239006 1 6
3 0 1 1

Improper Coeffs # harmonic

1 20.0075 0

Atoms # full

1101 74 4 0.147 -34.3127765256929 -10.784303234689082 -15.598357624111552 0 0 0
1100 74 5 -0.271 -35.11271887268851 -11.468777700368348 -15.414082388310346 0 0 0
1107 74 5 -0.271 -36.836166351337255 -12.913827235393583 -16.248068452337254 0 0 0
202 14 5 0.296 -29.22628330153054 -17.833907952780827 -12.103184523263916 0 0 0
1098 74 5 -0.08699999999999999 -35.610606609469635 -11.695404810227465 -14.153304848647899 0 0 0
1108 74 4 0.147 -37.31054002616427 -13.515415604717274 -17.023475814509368 0 0 0
1102 74 5 0.296 -35.72100711845912 -12.143252715935889 -16.441618449698595 0 0 0
5054 885 2 0.5564 -31.047198127086688 -16.569170644208768 -15.881474388234388 0 0 0
867 58 5 -0.271 -35.180771735843415 -18.65762711708374 -16.017282103887702 0 1 0
869 58 5 -0.08699999999999999 -35.604677994403836 -17.558927378530555 -15.298550989993378 0 1 0
1097 74 5 -0.184 -36.78142485039169 -12.423534528108567 -13.91004829911665 0 0 0
1109 74 5 -0.08699999999999999 -37.36343513919537 -12.990655311887206 -15.001223295698669 0 0 0
862 58 5 0.296 -34.67433992567571 -18.47022088100264 -17.314721640757316 0 1 0
863 58 3 -0.439 -34.50030247811419 8.884565425154747 -18.227289221376402 0 0 0
860 58 5 -0.271 -34.41372341538126 -17.242121823821574 -17.88354433867821 0 1 0
866 58 4 0.123 -33.89378586041168 9.149339326840739 -19.10858747637233 0 0 0
559 38 4 0.123 -30.95764093652148 -14.11003848835733 -15.442628595462255 0 0 0
5827 1143 1 -1.1128 -33.06084737166391 -9.960697400483488 -12.534932083701536 0 0 0
508 34 4 0.147 -39.676656653233316 -13.223755144400327 -9.792306635356992 1 0 0
200 14 5 -0.271 -29.38924921674566 -17.07898987820747 -13.301602328127393 0 0 0
201 14 4 0.147 -30.221441862055162 -16.365936437444905 -13.320433628135913 0 0 0
198 14 5 -0.08699999999999999 -28.68150827190058 -17.476989697718885 -14.481156556128115 0 0 0
4686 762 2 0.5564 -39.037114133861785 6.5181299937227575 -17.739257392720383 1 0 1
507 34 5 -0.271 -39.732619484069204 -12.50145547425712 -10.578805916697407 1 0 0
199 14 4 0.123 -28.792761345413233 -16.84318176396415 -15.370203306787126 0 0 0
868 58 4 0.147 -35.088921751876896 8.904250511678573 -15.5936660924272 0 0 0
1099 74 4 0.123 -35.026256888416604 -11.253637133159101 -13.322845575476904 0 0 0
558 38 5 -0.08699999999999999 -30.65964231023793 -13.043988645886898 -15.291065417401782 0 0 0
557 38 5 -0.184 -31.59758271535607 -12.042704518972268 -15.438517268258458 0 0 0
5815 1139 1 -1.1128 -37.99852549384922 -16.523642718039593 -17.941022851169794 1 0 0
5829 1143 2 0.5564 -32.68859671967023 -10.609855226479882 -13.131803436253795 0 0 0
5828 1143 2 0.5564 -32.72829521984383 -9.122045355206652 -12.854781605601781 0 0 0
5053 885 1 -1.1128 -31.952507445713387 -16.46103240930943 -15.590007261155701 0 0 0
5055 885 2 0.5564 -32.477594815555804 -16.61679369344267 -16.375025424865605 0 0 0
1110 74 4 0.123 -38.390422041128055 -13.090956222131805 -14.884521394626264 0 0 0
1096 74 4 0.134 -37.13253921471323 -12.494198322839356 -12.891016878860459 0 0 0
556 38 4 0.134 -32.56010754272141 -12.29108532832106 -15.852061490463797 0 0 0
1106 74 4 0.123 -34.34366888221071 -12.735489792524067 -17.942866948433107 1 0 0
1103 74 3 -0.439 -35.22251191078813 -12.05681591586791 -17.89144920170141 1 0 0
1104 74 4 0.123 -35.95872219766856 -12.337222655385256 -18.668359627433905 1 0 0
1105 74 4 0.123 -34.8428897749677 -11.034928486315644 -18.1166155221992 1 0 0
3951 517 2 0.5564 -31.795329381585987 -8.784709099337555 -9.811867657687518 0 0 0
3950 517 2 0.5564 -32.56494016701147 -9.810086960683616 -10.616973060735459 0 0 0
3949 517 1 -1.1128 -32.238897591311584 -9.629469521751686 -9.735323790525776 0 0 0
5816 1139 2 0.5564 -37.13560242718925 -16.477060482906587 -17.529409220928223 1 0 0
870 58 4 0.123 -35.92998561607014 -17.606095417065767 -14.223091811059906 0 1 0
4621 741 1 -1.1128 -30.007197073863246 -17.272239301893293 -17.712728609454167 0 0 0
539 36 5 -0.08699999999999999 -37.087916583581304 -17.26124517632593 -9.083642910181554 1 0 0
857 58 5 -0.184 -35.425074774449854 -16.297516874886906 -15.889744945063201 0 0 0
5817 1139 2 0.5564 -38.417332530952585 -17.282684205818985 -17.535204390221566 1 0 0
570 38 4 0.123 -31.97771190921739 -9.849668577024254 -15.393823913572366 0 0 0
540 36 4 0.123 -36.422769368405596 -16.521963575701776 -9.517807106810361 1 0 0
503 34 3 -0.439 -39.43046095949984 -10.589880640763704 -8.787340278255119 0 0 0
991 67 4 0.134 -34.181742971108825 -18.178435096900337 -11.136114867273088 0 0 0
994 67 4 0.123 -33.925356353585116 -17.734049616410175 -8.612930329788036 0 0 0
569 38 5 -0.08699999999999999 -31.24977614565988 -10.698439435328527 -15.240531659176739 0 0 0
203 14 3 -0.439 -29.818036476687418 -17.42210563438142 -10.77596753305634 0 0 0
864 58 4 0.123 -33.91316858475942 8.16751158468447 -17.58445757096752 0 0 1
993 67 5 -0.08699999999999999 -33.56168716467775 -17.01951580185536 -9.379065224054486 0 0 0
992 67 5 -0.184 -33.77539018589225 -17.241740691639517 -10.784948362869049 0 0 0
4752 784 2 0.5564 -33.22399794236563 -11.072523833848226 7.348132556249287 0 0 0
568 38 4 0.147 -29.579110885765243 -9.432838974319724 -14.723704699844964 0 0 0
567 38 5 -0.271 -29.887784257617344 -10.434726317290155 -14.978020314271989 0 0 0
205 14 4 0.123 -30.90665899245132 -17.103696086419028 -10.822622048038099 0 0 0
61 5 4 0.134 -28.27917700370324 -12.629755201018241 -7.971105431827981 0 0 0
1736 116 4 0.123 -37.54831340643322 -9.599295193921435 -11.43082824020395 0 0 0
1734 116 4 0.123 -37.36741268151403 -10.022297891900992 -13.055598755561217 0 0 1
1733 116 3 -0.439 -37.01971542213181 -9.311027114679751 -12.297771434800874 0 0 0
509 34 5 -0.08699999999999999 -39.86282057233279 -12.935196596138683 -11.901323899802067 0 0 0
858 58 5 -0.08699999999999999 -34.90175035578875 -16.120650333450286 -17.182777011074997 0 1 0
204 14 4 0.123 -29.310594423163554 -16.581967413570005 -10.242153469447597 0 0 0
3532 378 1 -1.1128 -39.52065497152375 -5.314542462859351 -17.31024539394037 0 0 1
39 3 4 0.123 -39.68504652757578 -1.7699495718027891 -9.486612782254598 1 0 0
75 5 4 0.123 -29.077053152774862 -11.83993247912672 -10.08212451293015 0 0 0
206 14 4 0.123 -29.74383333633577 -18.192551495340627 -10.00200689919761 0 0 0
1005 67 4 0.123 -33.606193778213175 -16.292044466386734 -12.639903053660609 0 0 0
1003 67 4 0.147 -32.786362442524386 -14.180030334408318 -11.815301857018762 0 0 0
1002 67 5 -0.271 -32.84613173298428 -15.001099276577818 -11.176732922647494 0 0 0
1004 67 5 -0.08699999999999999 -33.39838617455257 -16.164063532283407 -11.621877919121046 0 0 0
502 34 5 0.296 -39.67841798243115 -11.127537851768546 -10.238934245999198 0 0 0
209 14 5 -0.08699999999999999 -27.716503227359933 9.20932979274737 -13.270075766455896 0 -1 0
197 14 5 -0.184 -27.845901900496862 -18.58180671028811 -14.460719121331755 0 0 0
196 14 4 0.134 -27.51064451866236 -18.98048243850902 -15.465973991150076 0 0 0
207 14 5 -0.271 -28.413660279235856 -18.9546835884752 -12.118246061756375 0 0 0
560 38 5 -0.271 -29.310298039332718 -12.71860704508302 -15.241836528630703 0 0 0
70 5 4 0.123 -27.645761400212987 -14.638529895351608 -13.32944277959317 0 0 0
561 38 4 0.147 -28.565546874868815 -13.50389260084684 -15.302480521154273 0 0 0
564 38 4 0.123 -26.866224979904842 -10.624632407563004 -15.682633825790047 0 0 0
620 42 5 -0.271 -22.179824495652074 -17.991529188249416 -9.497976514584856 0 0 0
621 42 4 0.147 -22.108307103340877 -18.89017916400836 -10.166641871815791 0 0 0
618 42 5 -0.08699999999999999 -22.747054695023408 -16.845061994365224 -9.949907918057983 0 0 0
617 42 5 -0.184 -23.218712693689454 -15.892412963797778 -9.091321504082151 0 0 0
1222 82 5 0.296 -23.518141171164103 -11.04930511788164 -15.283390022149533 0 0 1
619 42 4 0.123 -22.728602362947615 -16.681459070699454 -11.004897919507615 0 0 0
629 42 5 -0.08699999999999999 -23.12815249511515 -15.98669313821122 -7.742299305495135 0 0 0
616 42 4 0.134 -23.536554350419518 -14.92498561329958 -9.508813168763002 0 0 0
1223 82 3 -0.439 -23.31269612399395 -12.072399103440764 -14.241877714974503 0 0 1
1227 82 5 -0.271 -23.4277503261056 -11.425994884728352 -16.63664164668055 0 0 0
563 38 3 -0.439 -27.40668725153494 -11.083263793376892 -14.771401492085243 0 0 0
565 38 4 0.123 -27.299907033493408 -10.346124267468573 -13.924798791751684 0 0 0
562 38 5 0.296 -28.90412759727691 -11.395721593692592 -15.095496471532545 0 0 0
566 38 4 0.123 -26.819818776673266 -11.944665738680127 -14.592417016595004 0 0 0
1226 82 4 0.123 -22.815396174539178 -11.707050519043937 -13.344297303850734 0 0 1
1220 82 5 -0.271 -23.600289988581483 -9.678782123666616 -14.920154701597463 0 0 1
1221 82 4 0.147 -23.876957307062384 -9.356648551514533 -13.88057826135107 0 0 1
1224 82 4 0.123 -24.297193913814016 -12.518981756465381 -13.977841461354625 0 0 1
314 21 5 -0.08699999999999999 -24.580005764114212 -17.98146027561062 -14.061784971798025 0 0 0
315 21 4 0.123 -24.757783155436712 -17.426119645304343 -13.156133177247577 0 0 0
1225 82 4 0.123 -22.639415574959774 -12.895393919847915 -14.542535969523035 0 0 1
4741 781 1 -1.1128 -22.322230628649233 -16.17975181531726 -19.056372518922096 0 0 0
4742 781 2 0.5564 -23.279275856592086 -16.180770453041394 -19.03918363217025 0 0 0
302 21 5 -0.184 -24.633312486988054 -17.36241474965787 -15.353080749746498 0 0 0
1229 82 5 -0.08699999999999999 -23.347103369761204 -10.502449035161405 -17.61658437921241 0 0 0
301 21 4 0.134 -24.95457122334236 -16.365828864220898 -15.470168947563199 0 0 0
1228 82 4 0.147 -23.712199098312947 -12.404640520359791 -17.024088922453736 0 0 0
303 21 5 -0.08699999999999999 -24.153796247735524 -17.982110263708165 -16.512947810917574 0 0 0
1307 88 5 -0.184 -26.165437697168326 -12.397036649218506 8.98184543011563 0 0 -1
1306 88 4 0.134 -25.28216525129975 -12.721421613386049 -18.97643033265485 0 0 0
2160 144 4 0.123 -20.880733705050048 -11.61610129117432 -12.127350749824327 0 0 0
304 21 4 0.123 -23.877367933392808 -17.406532384879004 -17.34086415347794 0 0 0
622 42 5 0.296 -22.11796592595446 -18.098071773804946 -8.120325534360282 0 0 0
4284 628 2 0.5564 -25.342822396334522 -17.03239432745391 -19.09600794356561 0 0 0
5678 1093 2 0.5564 -26.983944098547962 -17.427935561346136 -17.013113960809463 0 0 0
5677 1093 1 -1.1128 -26.906273261422943 -16.749938384582855 -17.684321047418877 0 0 0
2730 182 4 0.123 -22.42302099457329 -12.491070466555012 -9.942976470890848 0 0 0
2727 182 5 -0.271 -22.628099156850304 -10.298102604000118 -9.986445495696474 0 0 0
2728 182 4 0.147 -21.638924004981302 -10.06076281800611 -9.664424440687977 0 0 0
2729 182 5 -0.08699999999999999 -22.941579976697298 -11.679174951782867 -10.330835642177547 0 0 0
62 5 5 -0.184 -27.901855692545475 -13.132618785706228 -8.904752932470032 0 0 0
65 5 5 -0.271 -26.609332053416587 -14.803882177300672 -10.196197003849672 0 0 0
1308 88 5 -0.08699999999999999 -27.323258833178002 -13.198094570044294 8.965923692860168 0 0 0
1309 88 4 0.123 -27.189108525835177 -14.240263853399867 9.157740920824269 0 0 0
1218 82 5 -0.08699999999999999 -23.601939911202717 -8.760860281574622 -15.920697401642368 0 0 1
761 51 4 0.123 -28.037307185894658 -8.90682895254483 -19.069217770870576 0 0 0
2716 182 4 0.134 -24.50978591482518 -13.05612961820189 -10.879845487643143 0 0 0
2717 182 5 -0.184 -24.278434177520246 -12.002413881519765 -10.698494150741041 0 0 0
208 14 4 0.147 -28.567651512323845 8.818989153744385 -11.35033035018436 0 -1 0
5679 1093 2 0.5564 -27.809911690058136 -16.547110214027747 -17.92625112915484 0 0 0
312 21 5 -0.271 -24.094428150117796 9.241741793469972 -13.99413441461491 0 -1 0
1359 91 4 0.123 -24.33446794779816 8.852523050577249 -10.689261348040871 0 -1 0
51 4 4 0.147 -21.05999734944105 -18.51415543219568 -15.586377312096536 0 0 0
73 5 4 0.147 -28.1432104556071 -12.634648530808809 -12.323206373807379 0 0 0
72 5 5 -0.271 -27.976908403542694 -13.141246830768296 -11.3597058402569 0 0 0
74 5 5 -0.08699999999999999 -28.370974466567226 -12.664489335679967 -10.12847556982157 0 0 0
67 5 5 0.296 -27.105298078693682 -14.232679358818462 -11.337171413186722 0 0 0
71 5 4 0.123 -25.87003936350979 -14.626735360410857 -13.120183635531403 0 0 0
68 5 3 -0.439 -26.80924647763255 -14.886501869238252 -12.686336814765852 0 0 0
69 5 4 0.123 -26.88180153393869 -15.95091839118746 -12.44359538395557 0 0 0
623 42 3 -0.439 -21.591641822278188 9.117887838238449 -7.451188843497348 0 -1 0
4791 797 2 0.5564 -39.89287075933115 4.567425269302956 -16.057166626669233 0 0 0
4488 696 2 0.5564 -39.55444484825959 2.4484164100026216 -3.071674110675688 1 0 0
510 34 4 0.123 -39.94506440895887 -13.996039083584984 -12.176750926358215 1 0 0
1236 83 4 0.147 -20.421500999674226 2.4330298326273994 -19.129164931451058 0 0 1
50 4 5 -0.271 -20.538091424417196 -18.346497112796108 -14.678049360405879 0 0 0
504 34 4 0.123 -38.80443008488382 -11.265950441781294 -8.155196965313758 0 0 0
4794 798 2 0.5564 -39.67493011627073 -15.700977401719495 -17.944296275610142 1 0 0
1735 116 4 0.123 -35.9799436294224 -9.465248768460295 -12.080772141074041 0 0 1
3076 226 1 -1.1128 -39.35016665245768 6.171063366143756 -7.630836605976334 1 0 0
939 63 4 0.123 -20.502008439282132 3.7130757483089365 -16.30037659495686 0 -1 0
1488 100 5 -0.08699999999999999 -38.92883136911142 -0.36043322080139484 -11.813931630973565 1 0 0
4937 846 2 0.5564 -34.510050698739875 -7.7075645266033215 -17.189241079982853 0 0 0
5820 1140 2 0.5564 -31.045201022791268 -7.854786194422866 -12.981127075670205 0 0 0
937 63 5 0.296 -20.23271442542361 4.498090423032874 -14.390572774314233 0 -1 0
3539 380 2 0.5564 -32.854596873343255 -7.73786702224855 -15.172215692540325 0 0 0
3538 380 1 -1.1128 -32.45182468100018 -7.516029662167777 -14.3326952208719 0 0 0
3540 380 2 0.5564 -33.1468553621819 -7.078183375379454 -13.841314611569532 0 0 0
1726 116 4 0.134 -37.209291288886284 -4.100424648607518 -13.97219009315401 0 0 0
1738 116 4 0.147 -36.982224911142794 -8.308863506292122 -14.741578404218439 0 0 0
1740 116 4 0.123 -37.47508351270166 -6.064387533444346 -15.638234093835365 0 0 0
4817 806 2 0.5564 -35.24974864954818 -5.8614897051031045 -12.723995775516878 0 0 0
4816 806 1 -1.1128 -34.29599391920913 -5.846588257603399 -12.803756887719242 0 0 0
4938 846 2 0.5564 -33.30437770486002 -8.432073244658687 -17.749004407204115 0 0 0
1731 116 4 0.147 -37.08823574618618 -6.915855899280505 -10.818441009459248 0 0 0
1732 116 5 0.296 -37.31641025736662 -7.813370465031859 -12.714203233054842 0 0 0
1728 116 5 -0.08699999999999999 -37.46640713432285 -5.431406903903421 -12.31115113381191 0 0 0
1737 116 5 -0.271 -37.36848614848842 -7.5458418568173435 -14.059965085380146 0 0 0
1729 116 4 0.123 -37.8240364812885 -4.6542007135172145 -11.70675836194308 0 0 0
1727 116 5 -0.184 -37.42850788180514 -5.154689653629284 -13.68532405676226 0 0 0
1739 116 5 -0.08699999999999999 -37.34549511052393 -6.240618659069088 -14.543255745947167 0 0 0
1730 116 5 -0.271 -37.320940086656144 -6.724837892912616 -11.837259828723527 0 0 0
4936 846 1 -1.1128 -33.59123122191004 -7.902605425814419 -17.004954170863527 0 0 0
4818 806 2 0.5564 -33.98018577859188 -5.811090574898929 -11.90085212520873 0 0 0
5926 1176 1 -1.1128 -32.70886353041516 -3.267030034035007 -15.012620282239181 0 0 0
5928 1176 2 0.5564 -32.92939441729739 -2.3429696357075533 -14.895529051404257 0 0 0
5927 1176 2 0.5564 -32.45515766951371 -3.565734263441069 -14.13932711082529 0 0 0
4368 656 2 0.5564 -33.004529207848634 -4.747043916607792 -16.496423183048346 0 0 0
4366 656 1 -1.1128 -33.33490584336609 -5.154549981193281 -17.297061640000656 0 0 0
597 40 5 -0.271 -34.046226337271776 0.2698935453954616 -10.431353134923274 0 0 0
4554 718 2 0.5564 -34.53947905554496 -3.5921848636683724 -17.180504404616116 0 0 1
5389 997 1 -1.1128 -37.26765673036001 -1.357492349490735 -17.34045948841383 1 0 0
5390 997 2 0.5564 -36.412250867601934 -1.7813244700514657 -17.27060951189829 0 0 0
4552 718 1 -1.1128 -34.95235536202519 -2.8135263518071825 -17.553942404343204 0 0 1
4478 693 2 0.5564 -37.90807577716733 -2.9073218165886776 -18.46395013576512 0 0 1
4367 656 2 0.5564 -33.265050507863634 -6.09517635378436 -17.134045956444872 0 0 1
1491 100 4 0.147 -37.42869131569032 -1.689209759871146 -11.051941573614995 0 0 0
4553 718 2 0.5564 -34.87425956499045 -2.9311458868542615 -18.500672878996546 0 0 0
5391 997 2 0.5564 -37.08023098301891 -0.5002405807915391 -17.72285052829011 1 0 0
5904 1168 2 0.5564 -33.84051682276989 0.15820939717906415 -14.362769521081297 0 0 0
5902 1168 1 -1.1128 -33.31335598647001 -0.4874405359201483 -14.833374983929662 0 0 0
1494 100 4 0.123 -35.69504984598722 -2.1537121994903043 -14.261287852725886 1 0 0
1493 100 3 -0.439 -35.83638618638404 -1.8976764756797837 -13.21394859255905 0 0 0
4018 540 1 -1.1128 -37.181034192017506 -7.29398511418354 -18.144649215843593 0 0 0
1495 100 4 0.123 -34.98578165490752 -1.2796385247469764 -12.78820598250956 1 0 0
4508 703 2 0.5564 -33.786052921664876 -8.668111957908252 -9.106113443755504 0 0 0
592 40 5 0.296 -33.80885293115351 -1.0430545551437342 -10.031532397939483 0 0 0
593 40 3 -0.439 -32.713320063122715 -1.8261421983743618 -10.597588000180762 0 0 0
596 40 4 0.123 -32.89737220348572 -2.930343606486659 -10.663262479238435 0 0 0
594 40 4 0.123 -32.42044673592191 -1.459003555293299 -11.551426368481462 0 0 0
4031 544 2 0.5564 -30.82240123777336 -7.131754828586923 -10.763884635032127 0 0 0
595 40 4 0.123 -31.880274539427543 -1.7367296581894598 -9.88016500433755 0 0 0
5818 1140 1 -1.1128 -30.28540767617689 -7.938713401875006 -12.405017581572492 0 0 0
5047 883 1 -1.1128 -30.941552575748844 -1.0605143880340888 -13.727406634608931 0 0 0
1496 100 4 0.123 -35.854327215516854 -2.750469416436113 -12.603211694662786 0 0 0
1490 100 5 -0.271 -37.78225905618833 -1.1345741753331904 -11.931946674122084 0 0 0
1492 100 5 0.296 -37.054832887504006 -1.0439955669847807 -13.11026836334833 1 0 0
3891 497 2 0.5564 -39.91699044323485 -7.47761440742524 8.762048148548637 0 0 0
2520 168 4 0.123 -38.64779299908368 -5.618650568491525 2.2772613563895274 0 0 0
4170 590 2 0.5564 -33.061629812261785 -5.197455179576088 8.47785936748937 0 0 0
849 57 4 0.123 -33.80496072895773 0.49160030207034344 8.589878391023333 0 0 0
4789 797 1 -1.1128 -39.720947611480625 4.416273352596887 -15.127743477959218 0 0 0
756 51 4 0.147 -30.654768427787154 -7.474260700819582 -17.000801718843388 0 0 0
2331 156 4 0.147 -28.780184119414518 -3.500516863714409 -12.515073291748845 0 0 0
5754 1118 2 0.5564 -39.733736904936194 -13.389379602500473 3.0626186242662006 0 0 0
5048 883 2 0.5564 -31.82156832904735 -0.8256890994394039 -14.021789520142832 0 0 0
1498 100 4 0.147 -37.0389702666763 -0.39356031827602483 -15.108137088099326 1 0 0
3393 331 2 0.5564 -39.59847966881918 9.242824460338966 -17.240464281168517 1 0 0
4384 662 1 -1.1128 -20.511205218059782 -4.860658660669702 -0.40376610003027574 0 0 0
890 60 5 -0.271 -39.28689014408514 -10.759824625778073 -3.8540376726820726 1 0 0
4687 763 1 -1.1128 -33.64291295608779 -5.802258970331934 -10.027015698839115 0 0 0
3391 331 1 -1.1128 -39.528838893912656 -18.40473153163837 -16.82840942547554 1 1 0
54 4 4 0.123 -21.648434410514362 -15.332360574709432 -13.200401874752192 0 0 0
4533 711 2 0.5564 -20.532236465745363 -13.597620627125801 -6.907914395022136 0 0 0
4689 763 2 0.5564 -34.11115818461219 -6.586762895769617 -9.741477713777947 0 0 0
591 40 4 0.147 -34.59227977335844 -2.6822505975657274 -8.790183736182911 0 0 0
851 57 4 0.123 -32.617796919267555 -0.6829067990475017 9.172386713493438 0 0 0
1230 82 4 0.123 -22.94087038986798 -10.713058879697737 -18.62250115763369 0 0 0
2725 182 4 0.123 -22.20039171493344 -7.584984696513188 -9.944745806305441 0 0 0
4943 848 2 0.5564 -29.896894777464578 -3.2337903798133483 -15.53599703291094 0 0 0
1217 82 5 -0.184 -23.502850568169663 -9.140672965778782 -17.240849033907377 0 0 1
1111 75 4 0.134 -29.65860694677555 -3.3562703722824434 -18.291984687629537 0 0 1
1219 82 4 0.123 -23.791405329999243 -7.6824063280713855 -15.639321988098768 0 0 1
3176 259 2 0.5564 -26.348510656328674 -6.918614336576577 7.530450394220482 0 0 -1
1216 82 4 0.134 -23.537716221753477 -8.356420102644867 -18.006375873739035 0 0 0
5819 1140 2 0.5564 -29.886482201089088 -8.772480392533248 -12.653860730129734 0 0 0
3175 259 1 -1.1128 -26.237722037082666 -7.266380568622553 8.415332525623386 0 0 -1
1114 75 4 0.123 -28.585595460527532 -1.3162933246134663 -19.22055353833663 0 0 1
1113 75 5 -0.08699999999999999 -28.925196975074375 -2.1295778900412206 8.623878362971238 0 0 0
4944 848 2 0.5564 -29.853828791109216 -2.159752833926565 -14.46993700810484 0 0 0
4942 848 1 -1.1128 -29.309820340956687 -2.815407542984014 -14.90628971652317 0 0 0
682 46 5 0.296 -23.296272440926913 -1.926276184181903 -19.003136223604294 0 0 1
2329 156 4 0.123 -26.461929394874712 -3.146245845253134 -13.351083373409637 0 0 0
758 51 3 -0.439 -28.85045180232487 -8.272838649171417 -18.815384390087623 0 0 0
762 51 5 -0.271 -27.209934922656622 -7.768181197749451 -16.864049003200275 0 0 0
757 51 5 0.296 -28.557845163995626 -7.833627733082532 -17.38332974728711 0 0 0
2330 156 5 -0.271 -27.904622108026732 -3.9090419842164668 -11.977746664700097 0 0 0
765 51 4 0.123 -26.194316824652432 -7.5564903618131005 -15.100481517350671 0 0 0
764 51 5 -0.08699999999999999 -27.03328081338698 -7.2221447353980075 -15.620696630761527 0 0 0
752 51 5 -0.184 -28.116515346750028 -6.621450930987777 -14.950156941995788 0 0 0
751 51 4 0.134 -27.820560136541125 -6.020261765515188 -14.008311766873057 0 0 1
753 51 5 -0.08699999999999999 -29.397219410284574 -6.773980845759149 -15.39133968044404 0 0 0
754 51 4 0.123 -30.273115620642148 -6.455228653339973 -14.789489589287419 0 0 0
755 51 5 -0.271 -29.63100844674807 -7.398673381901673 -16.600225311804365 0 0 0
5536 1046 1 -1.1128 -24.239185554272716 -5.70319507726453 -18.689899985687322 0 0 0
5538 1046 2 0.5564 -25.10388092885782 -5.309818174986855 -18.572475909455676 0 0 0
5537 1046 2 0.5564 -23.714814327748172 -5.348882635786059 -17.971756981996847 0 0 0
5233 945 1 -1.1128 -26.90398668644991 -4.748904153756969 -18.60606160125654 0 0 0
5234 945 2 0.5564 -27.28667897892797 -5.625640463785148 -18.572716258337902 0 0 1
2328 156 5 -0.08699999999999999 -26.634631892339193 -3.710661991462707 -12.427658378652254 0 0 0
5235 945 2 0.5564 -27.28325354895741 -4.351149848668198 9.118955882614431 0 0 -1
763 51 4 0.147 -26.355084901005107 -8.222022350186805 -17.383901740489282 0 0 0
4093 565 1 -1.1128 -26.412222857752706 -3.651832519390434 -16.16401544628052 0 0 0
4095 565 2 0.5564 -27.278268165335557 -3.3989281534557296 -15.844270619916433 0 0 0
4094 565 2 0.5564 -26.5893336847513 -4.201755866098877 -16.927198201352425 0 0 0
5931 1177 2 0.5564 -39.460375254855606 6.8610199195324855 -10.70477959986351 1 0 0
3177 259 2 0.5564 -25.530057098980823 -6.743284837657735 8.791913270266047 0 0 -1
759 51 4 0.123 -29.799691349881396 -8.84989532387286 -18.905209231577327 0 0 0
681 46 4 0.147 -23.791970056283137 -2.1051699514581816 -16.928977824195627 0 0 1
680 46 5 -0.271 -24.112483654376206 -1.7232554970601002 -17.878660017493896 0 0 1
4798 800 1 -1.1128 -22.673519568360497 -5.441578799128558 -16.359830987773577 0 0 1
760 51 4 0.123 -28.78776816466019 -7.485828082831131 8.97970224037598 0 0 -1
3317 306 2 0.5564 -24.62874257954829 -3.125113112575021 -13.951841867809415 0 0 1
3316 306 1 -1.1128 -24.176582120486522 -3.509763631088587 -14.702725845645704 0 0 1
3318 306 2 0.5564 -24.832774670861706 -3.5180310127446557 -15.399557902390738 0 0 1
4800 800 2 0.5564 -22.876522813271624 -4.841856198367883 -15.641949141763423 0 0 1
1688 113 3 -0.439 -21.822681233068387 -2.351880110444569 -11.426309918611192 0 0 0
679 46 4 0.123 -25.728116442719354 -0.7813822800030913 -16.943584874517818 0 0 0
678 46 5 -0.08699999999999999 -25.23571605843641 -0.8870980464510135 -17.896079674978356 0 0 1
1112 75 5 -0.184 -29.64678123841945 -3.188875288942172 9.136199309091133 0 0 0
3461 354 2 0.5564 -22.413413440034496 -6.120928980897962 8.69976626116921 0 0 -1
4799 800 2 0.5564 -21.751457719794214 -5.66482800583577 -16.232576910505358 0 0 1
1689 113 4 0.123 -22.648107973613886 -1.8859273029414894 -12.009460782975713 0 0 0
2327 156 5 -0.184 -25.50570164043029 -4.20636120245117 -11.756126840154367 0 0 0
2722 182 5 0.296 -23.60365393832852 -9.314205875124546 -10.074800829436922 0 0 0
2718 182 5 -0.08699999999999999 -25.27874238084183 -11.025940205798683 -10.821117554947314 0 0 0
2339 156 5 -0.08699999999999999 -25.707694505592205 -4.822524630385162 -10.538859135174198 0 0 0
2326 156 4 0.134 -24.65523116613095 -4.434608148687297 -12.4149840782157 0 0 0
685 46 4 0.123 -22.087106377143552 -3.2638545283990426 8.376969351764389 0 0 0
683 46 3 -0.439 -22.161905078056197 -2.876768088407233 -19.08371571057828 0 0 1
686 46 4 0.123 -21.178943754637572 -2.3495322543165527 -18.826204633333315 0 0 1
684 46 4 0.123 -22.30531007237685 -3.6887569851008744 -18.44833530999951 0 0 1
1211 81 4 0.123 -20.53096981512773 -6.142563672449881 -12.907704900864779 0 0 0
677 46 5 -0.184 -25.58056542618257 -0.23803713290232711 -19.06687103478599 0 0 1
676 46 4 0.134 -26.456766122350274 0.41304809471734777 -19.186335101177594 0 0 1
1129 76 4 0.123 -20.87246714693103 1.4690082321909794 -13.42872639767529 0 -1 0
694 47 4 0.123 -38.9800363642777 8.358292323146149 0.9640310666138292 0 0 0
5752 1118 1 -1.1128 -39.26306253512182 -13.237969497366983 3.8822359356941454 0 0 0
2720 182 5 -0.271 -24.878746528985126 -9.70318981719764 -10.528335469287414 0 0 0
2719 182 4 0.123 -26.31072816550512 -11.3265352746869 -11.003661790314188 0 0 0
2721 182 4 0.147 -25.523693872162024 -8.872577869913565 -10.75219107979098 0 0 0
3627 409 2 0.5564 -27.019628676245222 -1.4156628131491114 -10.359448662836373 0 -1 0
5153 918 2 0.5564 -20.902047586118176 -15.720108771544849 -8.50938900724737 0 0 0
1691 113 4 0.123 -21.726548384943143 -3.448544180490548 -11.802560319599273 0 0 0
5464 1022 1 -1.1128 -39.76922719231766 4.188470186919179 -17.878923525448123 0 0 1
3005 202 2 0.5564 -39.89498683167787 -11.250763434859229 -0.05345001253304517 1 1 0
1690 113 4 0.123 -20.925421685324995 -1.7466044067289366 -11.66617298218104 0 0 0
4397 666 2 0.5564 -20.481447044947632 -15.110951389845697 0.7404113582296712 0 0 0
865 58 4 0.123 -35.436994355533926 8.411395709317635 -18.494011609620557 0 0 0
4684 762 1 -1.1128 -39.46067023332245 7.352995483625478 -17.539678544937445 1 0 1
4685 762 2 0.5564 -39.16195915343249 7.568490748528616 -16.656182430776926 1 0 1
4149 583 2 0.5564 -20.616770239839468 1.8278457319313692 -3.63795669062348 0 0 0
5903 1168 2 0.5564 -33.438636950637495 -0.2719081408030722 -15.757540743296872 0 0 0
1497 100 5 -0.271 -37.581624326527624 -0.29333177368680996 -14.168346982544524 1 0 0
1089 73 4 0.123 -20.16984245996916 5.801972375442911 -8.195147954114388 0 -1 0
3578 393 2 0.5564 -38.48313728923371 7.52174151212739 -11.971421384044493 0 0 0
4130 577 2 0.5564 -34.52727435797601 1.3591495742098831 -17.333082236881673 0 0 1
4129 577 1 -1.1128 -33.67084479374338 1.6438386456051401 -17.01415839146286 0 0 1
4131 577 2 0.5564 -33.192667525416 1.8968566536995395 -17.80381669885274 0 0 1
5650 1084 1 -1.1128 -34.32286916062767 1.8208352847885518 -13.585371208648963 0 0 0
5651 1084 2 0.5564 -34.304848140129835 2.393777585417376 -14.351950824848162 0 0 0
861 58 4 0.147 -33.994615577573946 -17.154452545084276 -18.90485134359231 0 1 0
598 40 4 0.147 -33.30109924023165 0.8721888390070618 -10.93078309772018 0 0 0
5707 1103 1 -1.1128 -36.328031047495834 1.3184503397289102 -17.588122009049293 0 0 0
3465 355 2 0.5564 -30.217632288818397 -19.127832306820007 -14.791973537001864 0 1 1
4749 783 2 0.5564 -37.60742178546504 6.074494954663791 -14.328768066213435 0 0 0
3078 226 2 0.5564 -39.647215683229525 6.168639654172696 -8.540775024243034 1 0 0
1239 83 4 0.123 -22.407919275771697 1.8845803931414615 -17.529438421873063 0 0 0
3776 459 2 0.5564 -32.349835236199105 8.65719735741194 -13.731543124825688 1 -1 0
4530 710 2 0.5564 -35.51778990534381 3.6219461922037124 -15.637256597946196 0 0 0
4528 710 1 -1.1128 -34.57763936496145 3.772005273815089 -15.73640964601919 0 0 0
3961 521 1 -1.1128 -38.23667840421823 1.9720443122625864 9.194332417515632 0 0 0
3963 521 2 0.5564 -38.57339460798063 2.861158073531982 -19.203337351965097 0 0 1
4529 710 2 0.5564 -34.26045986092997 3.0028726258769773 -16.20976372712052 0 0 0
5989 1197 1 -1.1128 -33.409662718132004 8.153327151231045 -10.677653008119467 0 0 0
3280 294 1 -1.1128 -36.86615841105293 2.744140757608676 -12.591868145585144 0 0 0
4846 816 1 -1.1128 -33.0084744054988 5.3723063817082215 -13.966851214650152 0 0 0
5652 1084 2 0.5564 -33.91131129252086 2.335663213973018 -12.891250053388765 0 0 0
4847 816 2 0.5564 -33.569068649475405 5.107049364479997 -14.69596352553573 0 0 0
4848 816 2 0.5564 -32.84470507716394 6.303449516330382 -14.116464096086697 0 0 0
5708 1103 2 0.5564 -36.74144916546999 1.5825083809814384 -16.76617878228196 0 0 0
4024 542 1 -1.1128 -33.9315607345702 3.7964586855126865 -11.69058977874482 0 0 0
4026 542 2 0.5564 -33.86128488787005 4.4396592215476085 -10.98519178919465 0 0 0
3282 294 2 0.5564 -36.02557243146983 2.2997914766551792 -12.70232533111234 0 0 0
4025 542 2 0.5564 -33.7646895807748 4.296977882982588 -12.48925517169043 0 0 0