# LAMMPS data file 

490 atoms
80 bonds
130 angles
120 dihedrals

7 atom types
5 bond types
6 angle types
3 dihedral types

-14.2 14.2 xlo xhi
-14.2 14.2 ylo yhi
-25.68 25.68 zlo zhi

Atoms

1 1 1 1.0 -12.78 -12.78 21.419999999999995 
2 1 2 -1.0 -12.78 -9.94 21.419999999999995 
3 1 2 -1.0 -9.94 -12.78 21.419999999999995 
4 1 1 1.0 -9.94 -9.94 21.419999999999995 
5 1 2 -1.0 -12.78 -12.78 24.259999999999994 
6 1 1 1.0 -12.78 -9.94 24.259999999999994 
7 1 1 1.0 -9.94 -12.78 24.259999999999994 
8 1 2 -1.0 -9.94 -9.94 24.259999999999994 
9 1 1 1.0 -12.78 -12.78 27.099999999999994 
10 1 2 -1.0 -12.78 -9.94 27.099999999999994 
11 1 2 -1.0 -9.94 -12.78 27.099999999999994 
12 1 1 1.0 -9.94 -9.94 27.099999999999994 
13 1 2 -1.0 -12.78 -12.78 29.939999999999994 
14 1 1 1.0 -12.78 -9.94 29.939999999999994 
15 1 1 1.0 -9.94 -12.78 29.939999999999994 
16 1 2 -1.0 -9.94 -9.94 29.939999999999994 
17 1 1 1.0 -12.78 -7.1 21.419999999999995 
18 1 2 -1.0 -12.78 -4.26 21.419999999999995 
19 1 2 -1.0 -9.94 -7.1 21.419999999999995 
20 1 1 1.0 -9.94 -4.26 21.419999999999995 
21 1 2 -1.0 -12.78 -7.1 24.259999999999994 
22 1 1 1.0 -12.78 -4.26 24.259999999999994 
23 1 1 1.0 -9.94 -7.1 24.259999999999994 
24 1 2 -1.0 -9.94 -4.26 24.259999999999994 
25 1 1 1.0 -12.78 -7.1 27.099999999999994 
26 1 2 -1.0 -12.78 -4.26 27.099999999999994 
27 1 2 -1.0 -9.94 -7.1 27.099999999999994 
28 1 1 1.0 -9.94 -4.26 27.099999999999994 
29 1 2 -1.0 -12.78 -7.1 29.939999999999994 
30 1 1 1.0 -12.78 -4.26 29.939999999999994 
31 1 1 1.0 -9.94 -7.1 29.939999999999994 
32 1 2 -1.0 -9.94 -4.26 29.939999999999994 
33 1 1 1.0 -12.78 -1.42 21.419999999999995 
34 1 2 -1.0 -12.78 1.42 21.419999999999995 
35 1 2 -1.0 -9.94 -1.42 21.419999999999995 
36 1 1 1.0 -9.94 1.42 21.419999999999995 
37 1 2 -1.0 -12.78 -1.42 24.259999999999994 
38 1 1 1.0 -12.78 1.42 24.259999999999994 
39 1 1 1.0 -9.94 -1.42 24.259999999999994 
40 1 2 -1.0 -9.94 1.42 24.259999999999994 
41 1 1 1.0 -12.78 -1.42 27.099999999999994 
42 1 2 -1.0 -12.78 1.42 27.099999999999994 
43 1 2 -1.0 -9.94 -1.42 27.099999999999994 
44 1 1 1.0 -9.94 1.42 27.099999999999994 
45 1 2 -1.0 -12.78 -1.42 29.939999999999994 
46 1 1 1.0 -12.78 1.42 29.939999999999994 
47 1 1 1.0 -9.94 -1.42 29.939999999999994 
48 1 2 -1.0 -9.94 1.42 29.939999999999994 
49 1 1 1.0 -12.78 4.26 21.419999999999995 
50 1 2 -1.0 -12.78 7.1 21.419999999999995 
51 1 2 -1.0 -9.94 4.26 21.419999999999995 
52 1 1 1.0 -9.94 7.1 21.419999999999995 
53 1 2 -1.0 -12.78 4.26 24.259999999999994 
54 1 1 1.0 -12.78 7.1 24.259999999999994 
55 1 1 1.0 -9.94 4.26 24.259999999999994 
56 1 2 -1.0 -9.94 7.1 24.259999999999994 
57 1 1 1.0 -12.78 4.26 27.099999999999994 
58 1 2 -1.0 -12.78 7.1 27.099999999999994 
59 1 2 -1.0 -9.94 4.26 27.099999999999994 
60 1 1 1.0 -9.94 7.1 27.099999999999994 
61 1 2 -1.0 -12.78 4.26 29.939999999999994 
62 1 1 1.0 -12.78 7.1 29.939999999999994 
63 1 1 1.0 -9.94 4.26 29.939999999999994 
64 1 2 -1.0 -9.94 7.1 29.939999999999994 
65 1 1 1.0 -12.78 9.94 21.419999999999995 
66 1 2 -1.0 -12.78 12.78 21.419999999999995 
67 1 2 -1.0 -9.94 9.94 21.419999999999995 
68 1 1 1.0 -9.94 12.78 21.419999999999995 
69 1 2 -1.0 -12.78 9.94 24.259999999999994 
70 1 1 1.0 -12.78 12.78 24.259999999999994 
71 1 1 1.0 -9.94 9.94 24.259999999999994 
72 1 2 -1.0 -9.94 12.78 24.259999999999994 
73 1 1 1.0 -12.78 9.94 27.099999999999994 
74 1 2 -1.0 -12.78 12.78 27.099999999999994 
75 1 2 -1.0 -9.94 9.94 27.099999999999994 
76 1 1 1.0 -9.94 12.78 27.099999999999994 
77 1 2 -1.0 -12.78 9.94 29.939999999999994 
78 1 1 1.0 -12.78 12.78 29.939999999999994 
79 1 1 1.0 -9.94 9.94 29.939999999999994 
80 1 2 -1.0 -9.94 12.78 29.939999999999994 
81 1 1 1.0 -7.1 -12.78 21.419999999999995 
82 1 2 -1.0 -7.1 -9.94 21.419999999999995 
83 1 2 -1.0 -4.26 -12.78 21.419999999999995 
84 1 1 1.0 -4.26 -9.94 21.419999999999995 
85 1 2 -1.0 -7.1 -12.78 24.259999999999994 
86 1 1 1.0 -7.1 -9.94 24.259999999999994 
87 1 1 1.0 -4.26 -12.78 24.259999999999994 
88 1 2 -1.0 -4.26 -9.94 24.259999999999994 
89 1 1 1.0 -7.1 -12.78 27.099999999999994 
90 1 2 -1.0 -7.1 -9.94 27.099999999999994 
91 1 2 -1.0 -4.26 -12.78 27.099999999999994 
92 1 1 1.0 -4.26 -9.94 27.099999999999994 
93 1 2 -1.0 -7.1 -12.78 29.939999999999994 
94 1 1 1.0 -7.1 -9.94 29.939999999999994 
95 1 1 1.0 -4.26 -12.78 29.939999999999994 
96 1 2 -1.0 -4.26 -9.94 29.939999999999994 
97 1 1 1.0 -7.1 -7.1 21.419999999999995 
98 1 2 -1.0 -7.1 -4.26 21.419999999999995 
99 1 2 -1.0 -4.26 -7.1 21.419999999999995 
100 1 1 1.0 -4.26 -4.26 21.419999999999995 
101 1 2 -1.0 -7.1 -7.1 24.259999999999994 
102 1 1 1.0 -7.1 -4.26 24.259999999999994 
103 1 1 1.0 -4.26 -7.1 24.259999999999994 
104 1 2 -1.0 -4.26 -4.26 24.259999999999994 
105 1 1 1.0 -7.1 -7.1 27.099999999999994 
106 1 2 -1.0 -7.1 -4.26 27.099999999999994 
107 1 2 -1.0 -4.26 -7.1 27.099999999999994 
108 1 1 1.0 -4.26 -4.26 27.099999999999994 
109 1 2 -1.0 -7.1 -7.1 29.939999999999994 
110 1 1 1.0 -7.1 -4.26 29.939999999999994 
111 1 1 1.0 -4.26 -7.1 29.939999999999994 
112 1 2 -1.0 -4.26 -4.26 29.939999999999994 
113 1 1 1.0 -7.1 -1.42 21.419999999999995 
114 1 2 -1.0 -7.1 1.42 21.419999999999995 
115 1 2 -1.0 -4.26 -1.42 21.419999999999995 
116 1 1 1.0 -4.26 1.42 21.419999999999995 
117 1 2 -1.0 -7.1 -1.42 24.259999999999994 
118 1 1 1.0 -7.1 1.42 24.259999999999994 
119 1 1 1.0 -4.26 -1.42 24.259999999999994 
120 1 2 -1.0 -4.26 1.42 24.259999999999994 
121 1 1 1.0 -7.1 -1.42 27.099999999999994 
122 1 2 -1.0 -7.1 1.42 27.099999999999994 
123 1 2 -1.0 -4.26 -1.42 27.099999999999994 
124 1 1 1.0 -4.26 1.42 27.099999999999994 
125 1 2 -1.0 -7.1 -1.42 29.939999999999994 
126 1 1 1.0 -7.1 1.42 29.939999999999994 
127 1 1 1.0 -4.26 -1.42 29.939999999999994 
128 1 2 -1.0 -4.26 1.42 29.939999999999994 
129 1 1 1.0 -7.1 4.26 21.419999999999995 
130 1 2 -1.0 -7.1 7.1 21.419999999999995 
131 1 2 -1.0 -4.26 4.26 21.419999999999995 
132 1 1 1.0 -4.26 7.1 21.419999999999995 
133 1 2 -1.0 -7.1 4.26 24.259999999999994 
134 1 1 1.0 -7.1 7.1 24.259999999999994 
135 1 1 1.0 -4.26 4.26 24.259999999999994 
136 1 2 -1.0 -4.26 7.1 24.259999999999994 
137 1 1 1.0 -7.1 4.26 27.099999999999994 
138 1 2 -1.0 -7.1 7.1 27.099999999999994 
139 1 2 -1.0 -4.26 4.26 27.099999999999994 
140 1 1 1.0 -4.26 7.1 27.099999999999994 
141 1 2 -1.0 -7.1 4.26 29.939999999999994 
142 1 1 1.0 -7.1 7.1 29.939999999999994 
143 1 1 1.0 -4.26 4.26 29.939999999999994 
144 1 2 -1.0 -4.26 7.1 29.939999999999994 
145 1 1 1.0 -7.1 9.94 21.419999999999995 
146 1 2 -1.0 -7.1 12.78 21.419999999999995 
147 1 2 -1.0 -4.26 9.94 21.419999999999995 
148 1 1 1.0 -4.26 12.78 21.419999999999995 
149 1 2 -1.0 -7.1 9.94 24.259999999999994 
150 1 1 1.0 -7.1 12.78 24.259999999999994 
151 1 1 1.0 -4.26 9.94 24.259999999999994 
152 1 2 -1.0 -4.26 12.78 24.259999999999994 
153 1 1 1.0 -7.1 9.94 27.099999999999994 
154 1 2 -1.0 -7.1 12.78 27.099999999999994 
155 1 2 -1.0 -4.26 9.94 27.099999999999994 
156 1 1 1.0 -4.26 12.78 27.099999999999994 
157 1 2 -1.0 -7.1 9.94 29.939999999999994 
158 1 1 1.0 -7.1 12.78 29.939999999999994 
159 1 1 1.0 -4.26 9.94 29.939999999999994 
160 1 2 -1.0 -4.26 12.78 29.939999999999994 
161 1 1 1.0 -1.42 -12.78 21.419999999999995 
162 1 2 -1.0 -1.42 -9.94 21.419999999999995 
163 1 2 -1.0 1.42 -12.78 21.419999999999995 
164 1 1 1.0 1.42 -9.94 21.419999999999995 
165 1 2 -1.0 -1.42 -12.78 24.259999999999994 
166 1 1 1.0 -1.42 -9.94 24.259999999999994 
167 1 1 1.0 1.42 -12.78 24.259999999999994 
168 1 2 -1.0 1.42 -9.94 24.259999999999994 
169 1 1 1.0 -1.42 -12.78 27.099999999999994 
170 1 2 -1.0 -1.42 -9.94 27.099999999999994 
171 1 2 -1.0 1.42 -12.78 27.099999999999994 
172 1 1 1.0 1.42 -9.94 27.099999999999994 
173 1 2 -1.0 -1.42 -12.78 29.939999999999994 
174 1 1 1.0 -1.42 -9.94 29.939999999999994 
175 1 1 1.0 1.42 -12.78 29.939999999999994 
176 1 2 -1.0 1.42 -9.94 29.939999999999994 
177 1 1 1.0 -1.42 -7.1 21.419999999999995 
178 1 2 -1.0 -1.42 -4.26 21.419999999999995 
179 1 2 -1.0 1.42 -7.1 21.419999999999995 
180 1 1 1.0 1.42 -4.26 21.419999999999995 
181 1 2 -1.0 -1.42 -7.1 24.259999999999994 
182 1 1 1.0 -1.42 -4.26 24.259999999999994 
183 1 1 1.0 1.42 -7.1 24.259999999999994 
184 1 2 -1.0 1.42 -4.26 24.259999999999994 
185 1 1 1.0 -1.42 -7.1 27.099999999999994 
186 1 2 -1.0 -1.42 -4.26 27.099999999999994 
187 1 2 -1.0 1.42 -7.1 27.099999999999994 
188 1 1 1.0 1.42 -4.26 27.099999999999994 
189 1 2 -1.0 -1.42 -7.1 29.939999999999994 
190 1 1 1.0 -1.42 -4.26 29.939999999999994 
191 1 1 1.0 1.42 -7.1 29.939999999999994 
192 1 2 -1.0 1.42 -4.26 29.939999999999994 
193 1 1 1.0 -1.42 -1.42 21.419999999999995 
194 1 2 -1.0 -1.42 1.42 21.419999999999995 
195 1 2 -1.0 1.42 -1.42 21.419999999999995 
196 1 1 1.0 1.42 1.42 21.419999999999995 
197 1 2 -1.0 -1.42 -1.42 24.259999999999994 
198 1 1 1.0 -1.42 1.42 24.259999999999994 
199 1 1 1.0 1.42 -1.42 24.259999999999994 
200 1 2 -1.0 1.42 1.42 24.259999999999994 
201 1 1 1.0 -1.42 -1.42 27.099999999999994 
202 1 2 -1.0 -1.42 1.42 27.099999999999994 
203 1 2 -1.0 1.42 -1.42 27.099999999999994 
204 1 1 1.0 1.42 1.42 27.099999999999994 
205 1 2 -1.0 -1.42 -1.42 29.939999999999994 
206 1 1 1.0 -1.42 1.42 29.939999999999994 
207 1 1 1.0 1.42 -1.42 29.939999999999994 
208 1 2 -1.0 1.42 1.42 29.939999999999994 
209 1 1 1.0 -1.42 4.26 21.419999999999995 
210 1 2 -1.0 -1.42 7.1 21.419999999999995 
211 1 2 -1.0 1.42 4.26 21.419999999999995 
212 1 1 1.0 1.42 7.1 21.419999999999995 
213 1 2 -1.0 -1.42 4.26 24.259999999999994 
214 1 1 1.0 -1.42 7.1 24.259999999999994 
215 1 1 1.0 1.42 4.26 24.259999999999994 
216 1 2 -1.0 1.42 7.1 24.259999999999994 
217 1 1 1.0 -1.42 4.26 27.099999999999994 
218 1 2 -1.0 -1.42 7.1 27.099999999999994 
219 1 2 -1.0 1.42 4.26 27.099999999999994 
220 1 1 1.0 1.42 7.1 27.099999999999994 
221 1 2 -1.0 -1.42 4.26 29.939999999999994 
222 1 1 1.0 -1.42 7.1 29.939999999999994 
223 1 1 1.0 1.42 4.26 29.939999999999994 
224 1 2 -1.0 1.42 7.1 29.939999999999994 
225 1 1 1.0 -1.42 9.94 21.419999999999995 
226 1 2 -1.0 -1.42 12.78 21.419999999999995 
227 1 2 -1.0 1.42 9.94 21.419999999999995 
228 1 1 1.0 1.42 12.78 21.419999999999995 
229 1 2 -1.0 -1.42 9.94 24.259999999999994 
230 1 1 1.0 -1.42 12.78 24.259999999999994 
231 1 1 1.0 1.42 9.94 24.259999999999994 
232 1 2 -1.0 1.42 12.78 24.259999999999994 
233 1 1 1.0 -1.42 9.94 27.099999999999994 
234 1 2 -1.0 -1.42 12.78 27.099999999999994 
235 1 2 -1.0 1.42 9.94 27.099999999999994 
236 1 1 1.0 1.42 12.78 27.099999999999994 
237 1 2 -1.0 -1.42 9.94 29.939999999999994 
238 1 1 1.0 -1.42 12.78 29.939999999999994 
239 1 1 1.0 1.42 9.94 29.939999999999994 
240 1 2 -1.0 1.42 12.78 29.939999999999994 
241 1 1 1.0 4.26 -12.78 21.419999999999995 
242 1 2 -1.0 4.26 -9.94 21.419999999999995 
243 1 2 -1.0 7.1 -12.78 21.419999999999995 
244 1 1 1.0 7.1 -9.94 21.419999999999995 
245 1 2 -1.0 4.26 -12.78 24.259999999999994 
246 1 1 1.0 4.26 -9.94 24.259999999999994 
247 1 1 1.0 7.1 -12.78 24.259999999999994 
248 1 2 -1.0 7.1 -9.94 24.259999999999994 
249 1 1 1.0 4.26 -12.78 27.099999999999994 
250 1 2 -1.0 4.26 -9.94 27.099999999999994 
251 1 2 -1.0 7.1 -12.78 27.099999999999994 
252 1 1 1.0 7.1 -9.94 27.099999999999994 
253 1 2 -1.0 4.26 -12.78 29.939999999999994 
254 1 1 1.0 4.26 -9.94 29.939999999999994 
255 1 1 1.0 7.1 -12.78 29.939999999999994 
256 1 2 -1.0 7.1 -9.94 29.939999999999994 
257 1 1 1.0 4.26 -7.1 21.419999999999995 
258 1 2 -1.0 4.26 -4.26 21.419999999999995 
259 1 2 -1.0 7.1 -7.1 21.419999999999995 
260 1 1 1.0 7.1 -4.26 21.419999999999995 
261 1 2 -1.0 4.26 -7.1 24.259999999999994 
262 1 1 1.0 4.26 -4.26 24.259999999999994 
263 1 1 1.0 7.1 -7.1 24.259999999999994 
264 1 2 -1.0 7.1 -4.26 24.259999999999994 
265 1 1 1.0 4.26 -7.1 27.099999999999994 
266 1 2 -1.0 4.26 -4.26 27.099999999999994 
267 1 2 -1.0 7.1 -7.1 27.099999999999994 
268 1 1 1.0 7.1 -4.26 27.099999999999994 
269 1 2 -1.0 4.26 -7.1 29.939999999999994 
270 1 1 1.0 4.26 -4.26 29.939999999999994 
271 1 1 1.0 7.1 -7.1 29.939999999999994 
272 1 2 -1.0 7.1 -4.26 29.939999999999994 
273 1 1 1.0 4.26 -1.42 21.419999999999995 
274 1 2 -1.0 4.26 1.42 21.419999999999995 
275 1 2 -1.0 7.1 -1.42 21.419999999999995 
276 1 1 1.0 7.1 1.42 21.419999999999995 
277 1 2 -1.0 4.26 -1.42 24.259999999999994 
278 1 1 1.0 4.26 1.42 24.259999999999994 
279 1 1 1.0 7.1 -1.42 24.259999999999994 
280 1 2 -1.0 7.1 1.42 24.259999999999994 
281 1 1 1.0 4.26 -1.42 27.099999999999994 
282 1 2 -1.0 4.26 1.42 27.099999999999994 
283 1 2 -1.0 7.1 -1.42 27.099999999999994 
284 1 1 1.0 7.1 1.42 27.099999999999994 
285 1 2 -1.0 4.26 -1.42 29.939999999999994 
286 1 1 1.0 4.26 1.42 29.939999999999994 
287 1 1 1.0 7.1 -1.42 29.939999999999994 
288 1 2 -1.0 7.1 1.42 29.939999999999994 
289 1 1 1.0 4.26 4.26 21.419999999999995 
290 1 2 -1.0 4.26 7.1 21.419999999999995 
291 1 2 -1.0 7.1 4.26 21.419999999999995 
292 1 1 1.0 7.1 7.1 21.419999999999995 
293 1 2 -1.0 4.26 4.26 24.259999999999994 
294 1 1 1.0 4.26 7.1 24.259999999999994 
295 1 1 1.0 7.1 4.26 24.259999999999994 
296 1 2 -1.0 7.1 7.1 24.259999999999994 
297 1 1 1.0 4.26 4.26 27.099999999999994 
298 1 2 -1.0 4.26 7.1 27.099999999999994 
299 1 2 -1.0 7.1 4.26 27.099999999999994 
300 1 1 1.0 7.1 7.1 27.099999999999994 
301 1 2 -1.0 4.26 4.26 29.939999999999994 
302 1 1 1.0 4.26 7.1 29.939999999999994 
303 1 1 1.0 7.1 4.26 29.939999999999994 
304 1 2 -1.0 7.1 7.1 29.939999999999994 
305 1 1 1.0 4.26 9.94 21.419999999999995 
306 1 2 -1.0 4.26 12.78 21.419999999999995 
307 1 2 -1.0 7.1 9.94 21.419999999999995 
308 1 1 1.0 7.1 12.78 21.419999999999995 
309 1 2 -1.0 4.26 9.94 24.259999999999994 
310 1 1 1.0 4.26 12.78 24.259999999999994 
311 1 1 1.0 7.1 9.94 24.259999999999994 
312 1 2 -1.0 7.1 12.78 24.259999999999994 
313 1 1 1.0 4.26 9.94 27.099999999999994 
314 1 2 -1.0 4.26 12.78 27.099999999999994 
315 1 2 -1.0 7.1 9.94 27.099999999999994 
316 1 1 1.0 7.1 12.78 27.099999999999994 
317 1 2 -1.0 4.26 9.94 29.939999999999994 
318 1 1 1.0 4.26 12.78 29.939999999999994 
319 1 1 1.0 7.1 9.94 29.939999999999994 
320 1 2 -1.0 7.1 12.78 29.939999999999994 
321 1 1 1.0 9.94 -12.78 21.419999999999995 
322 1 2 -1.0 9.94 -9.94 21.419999999999995 
323 1 2 -1.0 12.78 -12.78 21.419999999999995 
324 1 1 1.0 12.78 -9.94 21.419999999999995 
325 1 2 -1.0 9.94 -12.78 24.259999999999994 
326 1 1 1.0 9.94 -9.94 24.259999999999994 
327 1 1 1.0 12.78 -12.78 24.259999999999994 
328 1 2 -1.0 12.78 -9.94 24.259999999999994 
329 1 1 1.0 9.94 -12.78 27.099999999999994 
330 1 2 -1.0 9.94 -9.94 27.099999999999994 
331 1 2 -1.0 12.78 -12.78 27.099999999999994 
332 1 1 1.0 12.78 -9.94 27.099999999999994 
333 1 2 -1.0 9.94 -12.78 29.939999999999994 
334 1 1 1.0 9.94 -9.94 29.939999999999994 
335 1 1 1.0 12.78 -12.78 29.939999999999994 
336 1 2 -1.0 12.78 -9.94 29.939999999999994 
337 1 1 1.0 9.94 -7.1 21.419999999999995 
338 1 2 -1.0 9.94 -4.26 21.419999999999995 
339 1 2 -1.0 12.78 -7.1 21.419999999999995 
340 1 1 1.0 12.78 -4.26 21.419999999999995 
341 1 2 -1.0 9.94 -7.1 24.259999999999994 
342 1 1 1.0 9.94 -4.26 24.259999999999994 
343 1 1 1.0 12.78 -7.1 24.259999999999994 
344 1 2 -1.0 12.78 -4.26 24.259999999999994 
345 1 1 1.0 9.94 -7.1 27.099999999999994 
346 1 2 -1.0 9.94 -4.26 27.099999999999994 
347 1 2 -1.0 12.78 -7.1 27.099999999999994 
348 1 1 1.0 12.78 -4.26 27.099999999999994 
349 1 2 -1.0 9.94 -7.1 29.939999999999994 
350 1 1 1.0 9.94 -4.26 29.939999999999994 
351 1 1 1.0 12.78 -7.1 29.939999999999994 
352 1 2 -1.0 12.78 -4.26 29.939999999999994 
353 1 1 1.0 9.94 -1.42 21.419999999999995 
354 1 2 -1.0 9.94 1.42 21.419999999999995 
355 1 2 -1.0 12.78 -1.42 21.419999999999995 
356 1 1 1.0 12.78 1.42 21.419999999999995 
357 1 2 -1.0 9.94 -1.42 24.259999999999994 
358 1 1 1.0 9.94 1.42 24.259999999999994 
359 1 1 1.0 12.78 -1.42 24.259999999999994 
360 1 2 -1.0 12.78 1.42 24.259999999999994 
361 1 1 1.0 9.94 -1.42 27.099999999999994 
362 1 2 -1.0 9.94 1.42 27.099999999999994 
363 1 2 -1.0 12.78 -1.42 27.099999999999994 
364 1 1 1.0 12.78 1.42 27.099999999999994 
365 1 2 -1.0 9.94 -1.42 29.939999999999994 
366 1 1 1.0 9.94 1.42 29.939999999999994 
367 1 1 1.0 12.78 -1.42 29.939999999999994 
368 1 2 -1.0 12.78 1.42 29.939999999999994 
369 1 1 1.0 9.94 4.26 21.419999999999995 
370 1 2 -1.0 9.94 7.1 21.419999999999995 
371 1 2 -1.0 12.78 4.26 21.419999999999995 
372 1 1 1.0 12.78 7.1 21.419999999999995 
373 1 2 -1.0 9.94 4.26 24.259999999999994 
374 1 1 1.0 9.94 7.1 24.259999999999994 
375 1 1 1.0 12.78 4.26 24.259999999999994 
376 1 2 -1.0 12.78 7.1 24.259999999999994 
377 1 1 1.0 9.94 4.26 27.099999999999994 
378 1 2 -1.0 9.94 7.1 27.099999999999994 
379 1 2 -1.0 12.78 4.26 27.099999999999994 
380 1 1 1.0 12.78 7.1 27.099999999999994 
381 1 2 -1.0 9.94 4.26 29.939999999999994 
382 1 1 1.0 9.94 7.1 29.939999999999994 
383 1 1 1.0 12.78 4.26 29.939999999999994 
384 1 2 -1.0 12.78 7.1 29.939999999999994 
385 1 1 1.0 9.94 9.94 21.419999999999995 
386 1 2 -1.0 9.94 12.78 21.419999999999995 
387 1 2 -1.0 12.78 9.94 21.419999999999995 
388 1 1 1.0 12.78 12.78 21.419999999999995 
389 1 2 -1.0 9.94 9.94 24.259999999999994 
390 1 1 1.0 9.94 12.78 24.259999999999994 
391 1 1 1.0 12.78 9.94 24.259999999999994 
392 1 2 -1.0 12.78 12.78 24.259999999999994 
393 1 1 1.0 9.94 9.94 27.099999999999994 
394 1 2 -1.0 9.94 12.78 27.099999999999994 
395 1 2 -1.0 12.78 9.94 27.099999999999994 
396 1 1 1.0 12.78 12.78 27.099999999999994 
397 1 2 -1.0 9.94 9.94 29.939999999999994 
398 1 1 1.0 9.94 12.78 29.939999999999994 
399 1 1 1.0 12.78 9.94 29.939999999999994 
400 1 2 -1.0 12.78 12.78 29.939999999999994 
401 2 5 0.416 -9.445994690137729 -14.342796452139961 9.355103296857848 
402 2 7 -0.682 -8.830705230698953 -13.656145921683322 9.051686874581675 
403 2 6 0.372 -8.225716128835096 -14.127576064286826 7.843168324039468 
404 2 4 -0.029 -8.990336219757033 -14.305524719056415 7.070714727396071 
405 2 4 -0.029 -7.70515367076545 -15.082701423339428 8.014167550380835 
406 2 3 -0.285 -7.239483239842689 -13.074746298499003 7.364115384526883 
407 2 4 0.079 -6.767252112823014 -13.391883194508564 6.4275931014840655 
408 2 4 0.079 -6.4540698098002265 -12.91226949583923 8.110849547680768 
409 2 4 0.079 -7.750187322550125 -12.121251306151773 7.187870658051897 
410 3 5 0.416 -0.7938398461010205 -5.870543480366589 -15.635383889713491 
411 3 7 -0.682 -1.3102740586818784 -5.06659547333072 -15.805956165417255 
412 3 6 0.372 -1.7097313158016334 -5.098264392918392 -17.180076341748403 
413 3 4 -0.029 -2.329995747141256 -5.9854239841713515 -17.383088806897504 
414 3 4 -0.029 -0.8307079730748654 -5.155684027182822 -17.84076644172616 
415 3 3 -0.285 -2.5008520078150367 -3.8339111293372166 -17.473566412201674 
416 3 4 0.079 -2.841312778814798 -3.829586915805615 -18.51506523570565 
417 3 4 0.079 -1.8835548103894373 -2.94394995636915 -17.306838614355765 
418 3 4 0.079 -3.380101162112764 -3.770537946387441 -16.822460945717882 
419 4 5 0.416 14.834105792227495 -5.825282199928066 2.1527201848564084 
420 4 7 -0.682 14.58589536778662 -6.144008785144587 3.0352940028766433 
421 4 6 0.372 13.326893372054663 -6.813324551222295 2.909971779162767 
422 4 4 -0.029 13.408780994122985 -7.666892075534982 2.2188053267550965 
423 4 4 -0.029 12.562709546204125 -6.133896148711084 2.50144933689586 
424 4 3 -0.285 12.908858343108479 -7.299889628992224 4.288049674487811 
425 4 4 0.079 11.954723047669972 -7.835602569123701 4.230695349918975 
426 4 4 0.079 12.791798034158782 -6.455908466279867 4.977163278307995 
427 4 4 0.079 13.662599769159069 -7.979997320174926 4.700797727402523 
428 5 5 0.416 -6.58721696263618 3.641277649699295 -0.1342143717342026 
429 5 7 -0.682 -5.748823798291596 3.564250714262929 0.3487922000402147 
430 5 6 0.372 -5.790421170455741 2.3374556211534814 1.0850114186738014 
431 5 4 -0.029 -5.903785775238604 1.4799176158124832 0.40327011735686824 
432 5 4 -0.029 -6.650086658200351 2.3241652999600975 1.7729715019705123 
433 5 3 -0.285 -4.49389655600691 2.209779466480822 1.8681590864677564 
434 5 4 0.079 -4.479635540164749 1.2707549338640107 2.432677983709922 
435 5 4 0.079 -4.38519195446859 3.040631993436853 2.5743830353465205 
436 5 4 0.079 -3.63273239640629 2.21848674534636 1.1904024652167022 
437 6 5 0.416 2.536686404966265 -4.866659252523007 8.165489883036914 
438 6 7 -0.682 3.381001836575314 -4.945573474931921 8.637756325448548 
439 6 6 0.372 3.3576941861382883 -6.186152421112697 9.351335971639449 
440 6 4 -0.029 3.2438259440991573 -7.031792987561261 8.65497383742007 
441 6 4 -0.029 2.5058663663643497 -6.219487937384676 10.048306967076329 
442 6 3 -0.285 4.663850120311157 -6.317418563638675 10.117706261620832 
443 6 4 0.079 4.692117271042074 -7.266623009876444 10.664390743021748 
444 6 4 0.079 4.773550675892443 -5.498952453526991 10.838097747285778 
445 6 4 0.079 5.517327613689032 -6.288842195949869 9.430834276719233 
446 7 5 0.416 11.126455152139213 5.747841477904377 -4.064160056619038 
447 7 7 -0.682 11.580621057179318 6.40484975756886 -3.512612192575366 
448 7 6 0.372 12.448907270053878 7.154954827881932 -4.3682971321158535 
449 7 4 -0.029 11.871208144309545 7.667922530281184 -5.153231538644555 
450 7 4 -0.029 13.168413069952079 6.491335719661766 -4.872689383031884 
451 7 3 -0.285 13.188148376252228 8.175087064170809 -3.5177382844717333 
452 7 4 0.079 13.851879069112941 8.78366318543909 -4.142036856269932 
453 7 4 0.079 13.793296338726377 7.675262625823757 -2.7529792686640198 
454 7 4 0.079 12.479220583517925 8.84242324769932 -3.014630575349721 
455 8 5 0.416 -11.005388083899906 -5.225638353764683 4.404742275544531 
456 8 7 -0.682 -10.6076953543638 -4.570259824567591 5.000100211177621 
457 8 6 0.372 -10.293598591488905 -3.4148355646804904 4.215808630864731 
458 8 4 -0.029 -11.204897941954924 -2.9955140806607554 3.7611690450136983 
459 8 4 -0.029 -9.60837878574343 -3.6754028513465085 3.394182823942955 
460 8 3 -0.285 -9.646948100925409 -2.3842197133550385 5.127001067162082 
461 8 4 0.079 -9.407570831797786 -1.474444129661721 4.565165730864102 
462 8 4 0.079 -8.72062446675556 -2.7780284115784655 5.560272473900027 
463 8 4 0.079 -10.323998127803751 -2.1163022372301934 5.946059704395374 
464 9 5 0.416 -0.37599503514887145 12.22052122241586 10.468452722046045 
465 9 7 -0.682 0.5518426505115508 12.10578609986189 10.729383126369793 
466 9 6 0.372 0.6557322479245192 12.467580639104746 12.110356313168602 
467 9 4 -0.029 0.015315114930497753 11.820250417164601 12.729891336935408 
468 9 4 -0.029 0.32209601864824244 13.50502288155649 12.268124877075417 
469 9 3 -0.285 2.1082714733308143 12.317145969199878 12.532371425056189 
470 9 4 0.079 2.2259369175613744 12.568342111156003 13.59242207303154 
471 9 4 0.079 2.752445339289755 12.981221653295208 11.94506537696578 
472 9 4 0.079 2.4476589110300635 11.28601406363563 12.38198284638444 
473 10 5 0.416 -0.21439779847516505 -12.661927318912824 -3.3822423033501714 
474 10 7 -0.682 0.6124760555091926 -12.336057282706895 -3.772396047763728 
475 10 6 0.372 1.6576011047191272 -12.57983108271468 -2.8252618198543327 
476 10 4 -0.029 1.7476414030993803 -13.657405455550295 -2.616167626203189 
477 10 4 -0.029 1.4424949772869449 -12.078022857591051 -1.8690148230979393 
478 10 3 -0.285 2.9590017247764906 -12.054056379185475 -3.408798393821969 
479 10 4 0.079 3.789466692916631 -12.239326480899997 -2.7183963653811003 
480 10 4 0.079 2.8933961905603445 -10.975416901195903 -3.5907809982580554 
481 10 4 0.079 3.182737348679841 -12.551109874061575 -4.359542185788849 
482 11 5 0.416 -9.80507108500409 -10.928209412451544 -3.7998819339815397 
483 11 7 -0.682 -9.232781447089991 -10.177339171560957 -4.02529277413963 
484 11 6 0.372 -7.923410490550903 -10.473178818103762 -3.5285011866110407 
485 11 4 -0.029 -7.5299682355537225 -11.390153130568567 -3.994715159380551 
486 11 4 -0.029 -7.94802787295213 -10.643905801577352 -2.440964179763026 
487 11 3 -0.285 -7.016414166473195 -9.29681848631218 -3.8511954440925273 
488 11 4 0.079 -5.996730575086964 -9.49368850815824 -3.5017106765724106 
489 11 4 0.079 -7.379290127416419 -8.38399254805199 -3.3654437366084697 
490 11 4 0.079 -6.983237025275966 -9.12206155218386 -4.932580137627431 

Bonds

1 5 401 402 
2 2 402 403 
3 4 403 404 
4 4 403 405 
5 3 403 406 
6 1 406 407 
7 1 406 408 
8 1 406 409 
9 5 410 411 
10 2 411 412 
11 4 412 413 
12 4 412 414 
13 3 412 415 
14 1 415 416 
15 1 415 417 
16 1 415 418 
17 5 419 420 
18 2 420 421 
19 4 421 422 
20 4 421 423 
21 3 421 424 
22 1 424 425 
23 1 424 426 
24 1 424 427 
25 5 428 429 
26 2 429 430 
27 4 430 431 
28 4 430 432 
29 3 430 433 
30 1 433 434 
31 1 433 435 
32 1 433 436 
33 5 437 438 
34 2 438 439 
35 4 439 440 
36 4 439 441 
37 3 439 442 
38 1 442 443 
39 1 442 444 
40 1 442 445 
41 5 446 447 
42 2 447 448 
43 4 448 449 
44 4 448 450 
45 3 448 451 
46 1 451 452 
47 1 451 453 
48 1 451 454 
49 5 455 456 
50 2 456 457 
51 4 457 458 
52 4 457 459 
53 3 457 460 
54 1 460 461 
55 1 460 462 
56 1 460 463 
57 5 464 465 
58 2 465 466 
59 4 466 467 
60 4 466 468 
61 3 466 469 
62 1 469 470 
63 1 469 471 
64 1 469 472 
65 5 473 474 
66 2 474 475 
67 4 475 476 
68 4 475 477 
69 3 475 478 
70 1 478 479 
71 1 478 480 
72 1 478 481 
73 5 482 483 
74 2 483 484 
75 4 484 485 
76 4 484 486 
77 3 484 487 
78 1 487 488 
79 1 487 489 
80 1 487 490 

Angles

1 1 401 402 403 
2 3 402 403 404 
3 3 402 403 405 
4 2 402 403 406 
5 4 404 403 405 
6 6 404 403 406 
7 6 405 403 406 
8 6 403 406 407 
9 6 403 406 408 
10 6 403 406 409 
11 5 407 406 408 
12 5 407 406 409 
13 5 408 406 409 
14 1 410 411 412 
15 3 411 412 413 
16 3 411 412 414 
17 2 411 412 415 
18 4 413 412 414 
19 6 413 412 415 
20 6 414 412 415 
21 6 412 415 416 
22 6 412 415 417 
23 6 412 415 418 
24 5 416 415 417 
25 5 416 415 418 
26 5 417 415 418 
27 1 419 420 421 
28 3 420 421 422 
29 3 420 421 423 
30 2 420 421 424 
31 4 422 421 423 
32 6 422 421 424 
33 6 423 421 424 
34 6 421 424 425 
35 6 421 424 426 
36 6 421 424 427 
37 5 425 424 426 
38 5 425 424 427 
39 5 426 424 427 
40 1 428 429 430 
41 3 429 430 431 
42 3 429 430 432 
43 2 429 430 433 
44 4 431 430 432 
45 6 431 430 433 
46 6 432 430 433 
47 6 430 433 434 
48 6 430 433 435 
49 6 430 433 436 
50 5 434 433 435 
51 5 434 433 436 
52 5 435 433 436 
53 1 437 438 439 
54 3 438 439 440 
55 3 438 439 441 
56 2 438 439 442 
57 4 440 439 441 
58 6 440 439 442 
59 6 441 439 442 
60 6 439 442 443 
61 6 439 442 444 
62 6 439 442 445 
63 5 443 442 444 
64 5 443 442 445 
65 5 444 442 445 
66 1 446 447 448 
67 3 447 448 449 
68 3 447 448 450 
69 2 447 448 451 
70 4 449 448 450 
71 6 449 448 451 
72 6 450 448 451 
73 6 448 451 452 
74 6 448 451 453 
75 6 448 451 454 
76 5 452 451 453 
77 5 452 451 454 
78 5 453 451 454 
79 1 455 456 457 
80 3 456 457 458 
81 3 456 457 459 
82 2 456 457 460 
83 4 458 457 459 
84 6 458 457 460 
85 6 459 457 460 
86 6 457 460 461 
87 6 457 460 462 
88 6 457 460 463 
89 5 461 460 462 
90 5 461 460 463 
91 5 462 460 463 
92 1 464 465 466 
93 3 465 466 467 
94 3 465 466 468 
95 2 465 466 469 
96 4 467 466 468 
97 6 467 466 469 
98 6 468 466 469 
99 6 466 469 470 
100 6 466 469 471 
101 6 466 469 472 
102 5 470 469 471 
103 5 470 469 472 
104 5 471 469 472 
105 1 473 474 475 
106 3 474 475 476 
107 3 474 475 477 
108 2 474 475 478 
109 4 476 475 477 
110 6 476 475 478 
111 6 477 475 478 
112 6 475 478 479 
113 6 475 478 480 
114 6 475 478 481 
115 5 479 478 480 
116 5 479 478 481 
117 5 480 478 481 
118 1 482 483 484 
119 3 483 484 485 
120 3 483 484 486 
121 2 483 484 487 
122 4 485 484 486 
123 6 485 484 487 
124 6 486 484 487 
125 6 484 487 488 
126 6 484 487 489 
127 6 484 487 490 
128 5 488 487 489 
129 5 488 487 490 
130 5 489 487 490 

Dihedrals

1 3 401 402 403 404 
2 3 401 402 403 405 
3 1 401 402 403 406 
4 2 402 403 406 407 
5 3 402 403 406 408 
6 3 402 403 406 409 
7 3 404 403 406 407 
8 3 404 403 406 408 
9 3 404 403 406 409 
10 3 405 403 406 407 
11 3 405 403 406 408 
12 3 405 403 406 409 
13 3 410 411 412 413 
14 3 410 411 412 414 
15 1 410 411 412 415 
16 2 411 412 415 416 
17 3 411 412 415 417 
18 3 411 412 415 418 
19 3 413 412 415 416 
20 3 413 412 415 417 
21 3 413 412 415 418 
22 3 414 412 415 416 
23 3 414 412 415 417 
24 3 414 412 415 418 
25 3 419 420 421 422 
26 3 419 420 421 423 
27 1 419 420 421 424 
28 2 420 421 424 425 
29 3 420 421 424 426 
30 3 420 421 424 427 
31 3 422 421 424 425 
32 3 422 421 424 426 
33 3 422 421 424 427 
34 3 423 421 424 425 
35 3 423 421 424 426 
36 3 423 421 424 427 
37 3 428 429 430 431 
38 3 428 429 430 432 
39 1 428 429 430 433 
40 2 429 430 433 434 
41 3 429 430 433 435 
42 3 429 430 433 436 
43 3 431 430 433 434 
44 3 431 430 433 435 
45 3 431 430 433 436 
46 3 432 430 433 434 
47 3 432 430 433 435 
48 3 432 430 433 436 
49 3 437 438 439 440 
50 3 437 438 439 441 
51 1 437 438 439 442 
52 2 438 439 442 443 
53 3 438 439 442 444 
54 3 438 439 442 445 
55 3 440 439 442 443 
56 3 440 439 442 444 
57 3 440 439 442 445 
58 3 441 439 442 443 
59 3 441 439 442 444 
60 3 441 439 442 445 
61 3 446 447 448 449 
62 3 446 447 448 450 
63 1 446 447 448 451 
64 2 447 448 451 452 
65 3 447 448 451 453 
66 3 447 448 451 454 
67 3 449 448 451 452 
68 3 449 448 451 453 
69 3 449 448 451 454 
70 3 450 448 451 452 
71 3 450 448 451 453 
72 3 450 448 451 454 
73 3 455 456 457 458 
74 3 455 456 457 459 
75 1 455 456 457 460 
76 2 456 457 460 461 
77 3 456 457 460 462 
78 3 456 457 460 463 
79 3 458 457 460 461 
80 3 458 457 460 462 
81 3 458 457 460 463 
82 3 459 457 460 461 
83 3 459 457 460 462 
84 3 459 457 460 463 
85 3 464 465 466 467 
86 3 464 465 466 468 
87 1 464 465 466 469 
88 2 465 466 469 470 
89 3 465 466 469 471 
90 3 465 466 469 472 
91 3 467 466 469 470 
92 3 467 466 469 471 
93 3 467 466 469 472 
94 3 468 466 469 470 
95 3 468 466 469 471 
96 3 468 466 469 472 
97 3 473 474 475 476 
98 3 473 474 475 477 
99 1 473 474 475 478 
100 2 474 475 478 479 
101 3 474 475 478 480 
102 3 474 475 478 481 
103 3 476 475 478 479 
104 3 476 475 478 480 
105 3 476 475 478 481 
106 3 477 475 478 479 
107 3 477 475 478 480 
108 3 477 475 478 481 
109 3 482 483 484 485 
110 3 482 483 484 486 
111 1 482 483 484 487 
112 2 483 484 487 488 