LAMMPS data file via write_data, version 2 Aug 2023, timestep = 50000, units = real

3150 atoms
7 atom types
2100 bonds
6 bond types
1050 angles
9 angle types
0 dihedrals
3 dihedral types

-12.119198938293296 60.59599469146649 xlo xhi
-12.119198938293296 12.119198938293296 ylo yhi
-12.119198938293296 12.119198938293296 zlo zhi

Masses

1 15.9994
2 1.008
3 12.011
4 15.9994
5 1.008
6 15.9994
7 1.008

Pair Coeffs # lj/cut/coul/long

1 0.119432 3.40025
2 0 0
3 0.252656 2.84916
4 0.0663016 3.58118
5 0.0282937 2.37341
6 0 0
7 0.119497 3.1

Bond Coeffs # harmonic

1 442.161 0.972
2 1109.29 1.12
3 399.792 1.43
4 400.034 1.53
5 179.254 0.971
6 155.354 1.42

Angle Coeffs # harmonic

1 47.5559 103
2 30.1731 109.5
3 47.694 109.5
4 55.1139 111
5 65.472 111.3
6 54.9931 110.3
7 55.0234 111.4
8 180.46 109
9 30.1731 110

Dihedral Coeffs # harmonic

1 0.301147 1 3
2 1.41491 1 3
3 0 1 1

Atoms # full

532 178 1 -0.826 -0.8283891963084535 -3.782778908793878 -4.5489428490578625 0 0 1
446 149 2 0.413 -2.2885808470668643 -0.5480726337543533 -6.257225983769882 0 0 1
749 250 2 0.413 -10.106253834129882 -3.3160683310733337 -2.7164520207433434 0 0 0
299 100 2 0.413 -7.734462293584738 -4.545725909895879 -7.371760756207962 0 1 0
201 67 2 0.413 -1.2150884445244898 -7.965452261546902 -3.9421322308609685 0 0 0
107 36 2 0.413 -4.151197578921523 -9.370030650383612 -10.722625243918108 0 0 0
664 222 1 -0.826 -6.234940261091914 -8.835573637092597 -3.0093039684916736 0 -1 0
130 44 1 -0.826 -2.0666224061098557 -11.263030401771006 -5.679162198397506 0 1 1
199 67 1 -0.826 -1.9827251083205546 -8.555734705094569 -4.044368095158175 0 0 0
689 230 2 0.413 -0.8483884651879237 -2.8877006711122633 -8.305365882665546 0 0 0
374 125 2 0.413 -9.87737644052499 -6.599512574776906 -3.3240859436110135 0 1 -1
149 50 2 0.413 -10.011028459381647 -9.936013826551678 -5.298313104364201 0 0 1
748 250 1 -0.826 -9.619276939710707 -3.766845365105967 -1.9519963611883693 0 0 0
250 84 1 -0.826 -11.931664984070157 -5.437285530197095 -6.703562007051148 0 0 0
516 172 2 0.413 -5.829222656856643 -3.124675834147938 -0.89650220631923 0 0 -1
445 149 1 -0.826 -2.26643451490823 -1.1310382555453113 -5.469733000564968 0 0 1
447 149 2 0.413 -1.718541925839972 -1.9267689926893734 -5.6994092219957935 0 0 1
372 124 2 0.413 -11.317537768727442 -3.1715361204657917 -7.946308034749503 0 0 1
150 50 2 0.413 -11.025390344092056 -11.017969470003184 -5.244051127051332 0 0 1
533 178 2 0.413 -1.3462417102911033 -4.5783760000325895 -4.187255704720233 0 0 1
1006 336 1 -0.826 -11.176769131349152 -10.853930550339301 -2.1174210810365537 0 1 1
200 67 2 0.413 -2.5906805199547502 -8.192578051533308 -3.4394031589458347 0 0 0
690 230 2 0.413 -0.8762985755017407 -3.2809067879929046 -6.882350949632826 0 0 0
534 178 2 0.413 -0.182190114244138 -3.6580404976185275 -3.8891857425990075 0 0 1
688 230 1 -0.826 -1.4676385598072503 -2.9437245171541147 -7.571438797353222 0 0 0
2 1 2 0.413 -3.3235147291180613 -7.709879902334526 -6.809088879048719 0 0 -1
151 51 1 -0.826 -7.525324205472091 -7.630179572087157 -5.301265714902341 0 0 0
108 36 2 0.413 -4.2018664621640704 -10.583892784349061 -9.94472100751075 0 0 0
375 125 2 0.413 -8.300762183707736 -7.128325285805154 -2.959293828041968 0 1 -1
847 283 1 -0.826 -2.230546569774104 -5.546037364148092 -2.8174403162062287 0 0 0
131 44 2 0.413 -2.4875038344564757 -11.692944989305099 -4.855044059126186 0 1 1
1 1 1 -0.826 -3.3659858951343633 -6.718807649137927 -6.668798574915073 0 0 -1
849 283 2 0.413 -3.0779021157750996 -5.5109645982890445 -3.2557924093899224 0 0 0
153 51 2 0.413 -7.121978505165636 -7.980614185434341 -6.1134321705727865 0 0 0
298 100 1 -0.826 -8.62585144354422 -4.303353572994883 -7.043110066436939 0 1 0
413 138 2 0.413 -7.1130520152297425 -8.284898410496705 -0.8839864838265434 0 1 1
750 250 2 0.413 -9.256786056709531 -4.605792265051551 -2.3361503516102804 0 0 0
132 44 2 0.413 -1.9650716108455306 -10.34956697189686 -5.301588587652436 0 1 1
3 1 2 0.413 -3.044137839535731 -6.33706250424617 -7.513064888430669 0 0 -1
106 36 1 -0.826 -4.193173630992457 -9.63912418052364 -9.796961018833606 0 0 0
152 51 2 0.413 -7.8444122978715605 -6.736778072497871 -5.547366798262753 0 0 0
666 222 2 0.413 -5.687214481041495 -9.589742356096043 -3.3073960267434312 0 -1 0
665 222 2 0.413 -6.9178152282289185 -8.850846334599762 -3.757550124858888 0 -1 0
414 138 2 0.413 -6.668260624743185 -6.904086272606733 -0.9732539129074844 0 1 1
169 57 1 -0.826 -1.685080119689209 -6.7511893344472975 -11.613630635497046 0 0 0
370 124 1 -0.826 -11.497245252961426 -2.198521385777182 -7.74306959835415 0 0 1
373 125 1 -0.826 -8.999839928077234 -6.40364615005074 -2.892908382633017 0 1 -1
517 173 1 -0.826 -6.561167854198264 -12.022595643833903 -4.084508671155 0 1 0
1008 336 2 0.413 -10.28054404396984 -11.120394578150536 -1.7220369285813746 0 1 1
1007 336 2 0.413 -11.136440061053612 -11.447456166361592 -2.90348935606875 0 1 1
148 50 1 -0.826 -10.905678844541143 -10.101443747399903 -5.628554186501535 0 0 1
300 100 2 0.413 -9.149930683398335 -4.909019370607378 -7.5975754441657175 0 1 0
514 172 1 -0.826 -5.876170840716676 -2.361988964155035 -0.27648481371329936 0 0 -1
884 295 2 0.413 -0.13092294210908761 -7.080009706188175 -1.481703861409665 0 1 0
519 173 2 0.413 -6.999291624406497 -11.863347752646192 -4.91148688848971 0 1 0
432 144 2 0.413 -11.77814877617926 -6.158697245061051 -10.975152958473785 0 0 1
848 283 2 0.413 -2.260677038553313 -4.687364962397338 -2.3931413460674342 0 0 0
412 138 1 -0.826 -7.242621435605476 -7.4776142894548805 -0.3399381567019759 0 1 1
515 172 2 0.413 -6.79401928778272 -2.3289558552274006 -0.14106382533879014 0 0 -1
430 144 1 -0.826 -11.394358804842527 -7.038035079797743 -10.884355915546365 0 0 1
1544 515 2 0.413 -2.2325094687955804 -6.1560740469891115 -10.06003600720084 0 0 1
1559 520 2 0.413 -5.460465615413398 -1.4050836637085986 -8.669272224938997 0 1 -1
2001 667 2 0.413 -1.4571011720491462 -9.180760594416537 -8.806721291043063 0 1 0
1196 399 2 0.413 -7.4192199665459135 -11.148056432001558 -7.609484357151942 0 0 1
1999 667 1 -0.826 -0.5757737023574698 -9.145756208679476 -8.461794325950429 0 1 0
1429 477 1 -0.826 -6.325871147191634 -5.198631265176966 -8.263139193760777 0 0 1
1560 520 2 0.413 -4.763165504007883 -0.5049925380769409 -9.604115830114406 0 1 -1
1431 477 2 0.413 -5.555329090660074 -4.532527691541492 -8.119048482131316 0 0 1
2000 667 2 0.413 -0.18932375937263046 -8.415602993934934 -8.972642815327157 0 1 0
1197 399 2 0.413 -7.351837646504979 -9.738653063843206 -6.964898845373693 0 0 1
1558 520 1 -0.826 -5.392809410970003 -0.42838111050252436 -8.890807122642801 0 1 -1
1195 399 1 -0.826 -7.565982033325081 -10.6896318667916 -6.722597628897521 0 0 1
1543 515 1 -0.826 -2.4228421779113773 -5.607152862821826 -9.217532672360845 0 0 1
1430 477 2 0.413 -6.008434980066578 -5.69396070863941 -9.115666853536533 0 0 1
1298 433 2 0.413 -10.173517813341249 -1.3373355895217554 -4.970205853052885 1 0 1
1545 515 2 0.413 -1.4864358306912528 -5.297500868404744 -9.088157304418806 0 0 1
1299 433 2 0.413 -10.86577074337724 -0.8655232275874045 -6.2458295270394295 1 0 1
1297 433 1 -0.826 -10.243491271585839 -0.5553235207448868 -5.538889683824781 1 0 1
2958 986 2 0.413 -9.705225756742287 -4.729627058438819 -9.983483558562089 1 1 -1
2809 937 1 -0.826 -2.5667680277629046 -0.3173750802185715 -2.4627677925964004 1 -1 0
2499 833 2 0.413 -3.840178698109625 -2.0670764341502554 -4.315406200849136 1 1 -1
2498 833 2 0.413 -5.373823061252807 -2.319835227471806 -4.176649854491522 1 1 -1
2919 973 2 0.413 -6.571739141355849 -5.579376459247516 -2.5292671778780633 1 1 0
2861 954 2 0.413 -3.8115101897499954 -2.858158051681462 -1.1136208603092506 1 0 0
2500 834 1 -0.826 -0.6818416785774417 -1.4426898563822945 -11.74644823002363 1 1 0
2795 932 2 0.413 -11.560913008922647 -7.599443534224413 -0.4457516778464736 1 0 0
2195 732 2 0.413 -5.713777903079077 -8.6970462934719 -8.467933346054341 1 0 0
2673 891 2 0.413 -11.526238958618144 -8.595896092044418 -6.820251200185079 1 0 0
2891 964 2 0.413 -7.627204619697849 -0.43372889221667776 -6.334217882681738 1 0 1
2752 918 1 -0.826 -6.733368636163021 -2.259531253906001 -6.017215480991549 1 0 0
2138 713 2 0.413 -12.02547429480606 -8.703740394835958 -3.5505530905945584 1 0 0
2181 727 2 0.413 -3.6572316558558526 -3.7983898540496703 -8.108523935372869 1 -1 -1
3010 1004 1 -0.826 -4.639503828442159 -5.641453740379621 -4.38388870117566 1 0 1
3145 1049 1 -0.826 -8.309062009680503 -11.23282016066366 -1.6580310125319606 1 -1 0
2862 954 2 0.413 -2.605598058664796 -2.0698959657719183 -1.733877149293182 1 0 0
2796 932 2 0.413 -10.187573261012673 -7.128455998649827 -0.6257128670105416 1 0 0
2844 948 2 0.413 -10.161746339302837 -4.12022815421116 -5.121753563886561 1 0 1
2497 833 1 -0.826 -4.523599715947526 -2.404128192725704 -3.71216915382724 1 1 -1
3012 1004 2 0.413 -4.407058868470472 -6.226352896018567 -5.174890817711141 1 0 1
2753 918 2 0.413 -6.1409216128206054 -2.4116433447194527 -6.798409244739721 1 0 0
2988 996 2 0.413 -10.882934222670599 -10.854197803772777 -10.626031217128892 1 1 0
2835 945 2 0.413 -8.874248391176096 -1.7213578959310034 -2.065114424164314 1 -1 1
2986 996 1 -0.826 -10.862458743293445 -10.095832529349405 -10.008565800004536 1 1 0
2860 954 1 -0.826 -2.8589823124352307 -2.9438558989055608 -1.2002639050671249 1 0 0
2194 732 1 -0.826 -6.382380891900965 -8.39403788324492 -7.788134642402684 1 0 0
2987 996 2 0.413 -10.50689553346605 -9.415363584378563 -10.664759266744207 1 1 0
2672 891 2 0.413 -11.79998532966934 -8.807112001471129 -8.362890809976989 1 0 0
2196 732 2 0.413 -6.493035198808869 -7.465615412640341 -8.028051272033235 1 0 0
2502 834 2 0.413 -1.3226292290015493 -1.0089581613321954 -11.156135231608175 1 1 0
2833 945 1 -0.826 -8.707811449626973 -0.7639406056357245 -1.9497042895282846 1 -1 1
3121 1041 1 -0.826 -5.18072098581662 -5.581522104197074 -11.062793707199528 1 1 0
2917 973 1 -0.826 -5.951817866072773 -5.285017435241908 -1.8730163608692916 1 1 0
3011 1004 2 0.413 -4.362835367434144 -4.7473429480785 -4.783515694008894 1 0 1
2137 713 1 -0.826 -11.36176950902194 -8.180618204933367 -2.969964214465529 1 0 0
2956 986 1 -0.826 -10.54156597683145 -4.215392732448613 -9.76509332171732 1 1 -1
3122 1041 2 0.413 -5.681420642419056 -5.763120272051186 -11.86031578699189 1 1 0
3146 1049 2 0.413 -7.6134086733171245 -11.402945533313524 -2.3375601396990806 1 -1 0
2180 727 2 0.413 -3.6647334485321466 -2.4102173872693733 -7.59102563008345 1 -1 -1
2989 997 1 -0.826 -0.050691900283794666 -1.8143196128691912 -0.32760068493461425 1 1 0
2842 948 1 -0.826 -10.599673322762541 -3.367810457959367 -4.618525014512066 1 0 1
2671 891 1 -0.826 -11.910595234649364 -8.12090421052184 -7.629332700857236 1 0 0
2754 918 2 0.413 -7.601022305405124 -2.583273213315845 -6.359854162546975 1 0 0
2794 932 1 -0.826 -10.681989239174442 -7.791178950418113 -0.11349790392603332 1 0 0
2179 727 1 -0.826 -4.304186409909107 -3.1536115898364834 -7.8690813903834105 1 -1 -1
2139 713 2 0.413 -10.981678035218899 -8.908527747666286 -2.436103816741083 1 0 0
2957 986 2 0.413 -10.465391261210833 -3.624301438319872 -10.622589227402724 1 1 -1
2785 929 1 -0.826 -8.571705696788584 -6.059158395185623 -11.588142728439125 1 -1 1
2843 948 2 0.413 -11.372915460272765 -3.116235810831645 -5.140187266544199 1 0 1
3147 1049 2 0.413 -7.767897939695402 -11.466818232298078 -0.8448710362812832 1 -1 0
2787 929 2 0.413 -9.474248168313437 -6.494281504028724 -11.770692782568496 1 -1 1
2810 937 2 0.413 -2.7431283613720865 -0.6939920732942184 -3.3408479694270365 1 -1 0
2786 929 2 0.413 -8.203586922150507 -6.670949261509723 -10.935489639002773 1 -1 1
2918 973 2 0.413 -5.209404833932069 -5.22709510663395 -2.468366297766744 1 1 0
2834 945 2 0.413 -8.579456945169497 -0.7215889539106648 -0.9812209063590309 1 -1 1
3123 1041 2 0.413 -4.233542472403329 -5.68852474025347 -11.406468939523805 1 1 0
903 301 2 0.413 -11.613002482637823 -2.2832325257561585 -11.963897636490652 0 1 0
1002 334 2 0.413 -4.883352058666066 -0.29408290921093894 -11.689118581888593 0 0 2
171 57 2 0.413 -0.7027263238739341 -6.9846781600664185 -11.683756718459245 0 0 0
103 35 1 -0.826 -7.534413816193625 6.142073859391662 -11.021449367987262 0 -1 0
217 73 1 -0.826 -8.378023453571508 10.096391651389203 -5.181540695104982 0 -1 0
900 300 2 0.413 -5.92253262003793 4.895448587846451 -4.6581143985092845 0 0 0
105 35 2 0.413 -8.307065190950796 6.013561335052994 -11.710334919381339 0 -1 0
154 52 1 -0.826 -9.158369757176242 9.567902738407172 -1.4238076191982465 0 -1 1
595 199 1 -0.826 -2.8521524889735232 6.9592606805437125 -5.400047050520267 0 0 0
541 181 1 -0.826 -11.082280300718887 8.520301061525123 -7.711033597669886 0 0 1
270 90 2 0.413 -10.351952652685972 2.37730442533522 -6.592843806732105 0 0 1
69 23 2 0.413 -1.11493890449003 7.337858062027452 -8.560729978952706 0 0 0
544 182 1 -0.826 -7.158742564787985 3.6845483585041734 -0.3922556505369066 0 0 1
755 252 2 0.413 -11.397580124724517 7.65191879373592 -3.3929307889516167 0 -1 0
177 59 2 0.413 -9.741681201521425 1.7890334856184715 -10.470905824284076 0 0 0
739 247 1 -0.826 -4.809357920849314 8.402506465973223 -10.189177215868641 0 0 0
26 9 2 0.413 -2.3332633453928935 1.4924457456171876 -7.446044774083365 0 0 0
163 55 1 -0.826 -8.103629585563247 7.214981334446488 -4.406195115118628 0 -1 0
392 131 2 0.413 -9.714698880429706 11.129900925171727 -11.080264697783303 0 0 0
1000 334 1 -0.826 -4.881894140260696 0.6665279276029512 -11.708545909353582 0 0 2
268 90 1 -0.826 -10.877177439277379 1.8209881454479895 -7.264047995400887 0 0 1
899 300 2 0.413 -5.711862045637997 4.526109302303437 -6.028298586368684 0 0 0
218 73 2 0.413 -8.395646194321756 10.076181399539509 -6.130584128613823 0 -1 0
894 298 2 0.413 -0.9663511906256037 7.840949410762606 -11.1455930016813 0 0 0
981 327 2 0.413 -1.8976880637661768 4.848207898909106 -4.037705544945995 0 -1 0
155 52 2 0.413 -9.615073205844379 8.842489232183327 -1.8668144235486785 0 -1 1
292 98 1 -0.826 -4.060875884201463 1.8718472502902834 -3.3094640865343656 0 1 0
104 35 2 0.413 -7.07829492162081 5.293022560245642 -10.81685313760887 0 -1 0
545 182 2 0.413 -6.787443024609817 2.8006349172993197 -0.6297633333379551 0 0 1
597 199 2 0.413 -3.3594910125723185 6.292893268971566 -5.931414113746541 0 0 0
893 298 2 0.413 -1.5048383831152279 6.478268955116439 -10.929054307844336 0 0 0
596 199 2 0.413 -2.3595470788507065 7.480007229875893 -6.064862485511025 0 0 0
898 300 1 -0.826 -6.286409270910062 5.093605210056152 -5.574496489265704 0 0 0
314 105 2 0.413 0.10909593583109256 5.973843085755968 -2.74401286997778 0 0 -1
68 23 2 0.413 -0.40265692298864764 8.51077135481197 -7.771753325735116 0 0 0
979 327 1 -0.826 -1.4928382558884277 3.981680741520602 -4.3129081098655275 0 -1 0
168 56 2 0.413 -5.055287021493807 8.18045554754481 -0.2068666521307314 0 -2 1
425 142 2 0.413 -3.4394969379821134 11.696797792616787 -2.542154918558989 0 0 0
751 251 1 -0.826 -5.832005743221767 4.960038433006906 -2.499613028456398 0 0 1
27 9 2 0.413 -1.0042464539077063 0.8421054320671271 -7.908099869755219 0 0 0
25 9 1 -0.826 -1.9445681984852499 0.6556801992331422 -7.642884626602176 0 0 0
740 247 2 0.413 -5.423475937566722 7.6703864690132715 -9.937894783919607 0 0 0
269 90 2 0.413 -10.696594140433024 0.8728785331234281 -7.008760017648324 0 0 1
753 251 2 0.413 -4.947581341715533 4.738481589015921 -2.128353999770688 0 0 1
483 161 2 0.413 -7.538190231137019 1.0133932448829874 -9.105831499024937 0 1 2
315 105 2 0.413 -0.8304092192643306 6.8775762382402466 -2.1825705409287224 0 0 -1
176 59 2 0.413 -10.056236327001548 2.3185257592380566 -11.861154455441136 0 0 0
518 173 2 0.413 -7.031341213056469 11.337911798550573 -3.901503984403208 0 0 0
361 121 1 -0.826 -2.4199635803352155 2.4014995259262264 -11.970940622468387 0 1 1
741 247 2 0.413 -4.2707042826703345 7.914756757725675 -10.853078232089716 0 0 0
175 59 1 -0.826 -10.539796038139622 2.129724340942712 -10.996680054218466 0 0 0
752 251 2 0.413 -6.287426060108033 4.561307388566236 -1.7805477872285458 0 0 1
505 169 1 -0.826 -0.13825834275834126 10.944827491905174 -0.13713772378339328 0 -1 1
165 55 2 0.413 -8.374740520965258 6.467747151960847 -3.84481916993132 0 -1 0
6 2 2 0.413 -2.7892346938659145 5.10905038194279 -1.0804635358943653 0 -1 0
164 55 2 0.413 -7.409867167723617 6.751073558742558 -4.947518296503308 0 -1 0
166 56 1 -0.826 -5.1481594227214265 8.03942798526029 -1.216117508684274 0 -2 1
892 298 1 -0.826 -0.6811151995745721 6.969549222780673 -10.71145697028937 0 0 0
672 224 2 0.413 0.011103018976823975 12.079044775195259 -4.462459984645527 0 -1 0
219 73 2 0.413 -8.6667510630873 9.1459690148524 -4.9603637994926055 0 -1 0
5 2 2 0.413 -3.4773322324203093 3.852440271164319 -0.6037223169028181 0 -1 0
4 2 1 -0.826 -3.180295060946456 4.278149230443002 -1.3942226960796855 0 -1 0
72 24 2 0.413 -0.17440393040341995 0.6640622455788208 -1.8421110681863517 0 0 0
167 56 2 0.413 -5.705181319582671 7.202153156987421 -1.1808526544452214 0 -2 1
156 52 2 0.413 -8.789698952424876 9.926588361014266 -2.2275593144582153 0 -1 1
293 98 2 0.413 -4.444226568654207 2.1575486005898092 -4.122422203965302 0 1 0
294 98 2 0.413 -3.421936500224442 2.649896329045397 -3.293121911992534 0 1 0
391 131 1 -0.826 -10.669386930345869 10.933565549892196 -11.135318602441933 0 0 0
542 181 2 0.413 -11.3246918006696 8.76227550042161 -8.689476985469305 0 0 1
393 131 2 0.413 -10.564635542388627 9.96662395212977 -11.203191964678508 0 0 0
980 327 2 0.413 -0.8894837540662639 4.209737374338122 -5.036870446463793 0 -1 0
67 23 1 -0.826 -1.27065035059149 7.9480302584027225 -7.844882382829384 0 0 0
754 252 1 -0.826 -10.673178533839058 8.381939299433837 -3.5260174928811505 0 -1 0
426 142 2 0.413 -4.658521006228825 11.991441842536561 -3.4838339534775784 0 0 0
482 161 2 0.413 -6.948015570599863 0.9157958306592668 -10.52302783982531 0 1 2
756 252 2 0.413 -9.97038641314868 7.7092131176209655 -3.8020974925770634 0 -1 0
481 161 1 -0.826 -7.724855891907961 1.2359340758020814 -10.007022405846072 0 1 2
543 181 2 0.413 -11.993678858146755 8.273195851505895 -7.491677532902376 0 0 1
313 105 1 -0.826 -0.015460708675329116 6.432355552802102 -1.8958926480336338 0 0 -1
424 142 1 -0.826 -3.6778549112913 11.87032104548121 -3.4720851617270974 0 0 0
33 11 2 0.413 -3.3901072186671897 -0.42795153656856755 -0.6386174042259505 0 -1 -1
362 121 2 0.413 -3.150968820418262 1.7397637256847425 -11.975018310358255 0 1 1
1128 376 2 0.413 -3.5780067342646937 4.908364411165119 -11.044102833637448 0 0 0
1126 376 1 -0.826 -3.5322153242493464 5.807554776912843 -11.359989420554015 0 0 0
2011 671 1 -0.826 -3.942526736168144 11.435146538425288 -0.3025256874953719 0 0 1
1708 570 1 -0.826 -1.1710940530549614 11.160334379524935 -7.708387181953625 0 -1 0
1916 639 2 0.413 -10.926991296654592 3.824519269750187 -8.814144929128839 1 0 0
1672 558 1 -0.826 -5.138559685784145 2.47052967422907 -7.051372418676468 1 -1 1
1710 570 2 0.413 -2.010341267949226 10.720823198563464 -8.013349588853458 0 -1 0
1915 639 1 -0.826 -10.533318439087111 4.781603905565435 -8.826077399450671 1 0 0
1485 495 2 0.413 -11.123342176099651 4.77843384435884 -3.084348941650994 0 -1 1
1917 639 2 0.413 -9.647186066574761 4.417621951432681 -8.911116142583596 1 0 0
1483 495 1 -0.826 -10.092560731160926 4.769248055716655 -2.987953920376569 0 -1 1
1674 558 2 0.413 -5.917896777209819 2.0128725642033203 -6.598063078290739 1 -1 1
1673 558 2 0.413 -4.814240165979584 1.6911030685463153 -7.572114613386951 1 -1 1
1484 495 2 0.413 -10.02993588843199 3.9197356407801784 -2.4958811261208744 0 -1 1
1709 570 2 0.413 -1.6751210893558444 11.808761201791041 -7.16959285041144 0 -1 0
2013 671 2 0.413 -4.365127707359836 10.598043310302968 -0.5769113492090163 0 0 1
2756 919 2 0.413 -3.650409529300944 7.813902379433625 -2.2551866172583797 1 -1 0
2155 719 1 -0.826 -9.576109020723337 2.2499963073586535 -1.6852366099507865 1 -1 0
2379 793 2 0.413 -9.087550673603793 8.281257716817828 -9.03615895925483 1 0 0
2663 888 2 0.413 -1.1561288516594033 2.2747645795997435 -10.231330840121672 1 1 0
2878 960 1 -0.826 -11.499220280817 7.110774676547248 -10.587693675682662 1 -1 1
2704 902 1 -0.826 -6.616059578009725 11.919465926672283 -8.939189566530827 1 0 0
2798 933 2 0.413 -9.935594815908821 11.185991625005018 -4.3681205274796575 1 -1 0
2892 964 2 0.413 -8.530597372506904 0.7691830681411709 -6.201139467198505 1 0 1
2364 788 2 0.413 -8.704729697582039 4.463027294104737 -6.416114488506679 1 -1 1
2706 902 2 0.413 -5.711201257533233 11.665508819096653 -8.691949801433257 1 0 0
3130 1044 1 -0.826 -3.8598998173875856 10.213791742603815 -8.08952277974042 1 0 0
2705 902 2 0.413 -6.588190026042113 11.828341175729049 -9.876220285672538 1 0 0
2377 793 1 -0.826 -8.742483405861819 8.552962639209634 -9.921290194538653 1 0 0
2799 933 2 0.413 -11.383907814829662 10.699474601744791 -4.268460240192178 1 -1 0
2890 964 1 -0.826 -7.6125444218640865 0.5408035401273565 -6.4514657812147185 1 0 1
3131 1044 2 0.413 -4.350635962530319 9.950494736053423 -7.2433093173255685 1 0 0
2757 919 2 0.413 -2.7945282637310527 7.553946461598191 -3.5356462437350284 1 -1 0
2639 880 2 0.413 -5.604268757949441 3.011252551932156 -10.186917370599781 1 1 1
3132 1044 2 0.413 -3.9317768363955565 9.445634608601468 -8.748729159029418 1 0 0
2879 960 2 0.413 -11.151025609833887 6.423363781232336 -9.999350876141627 1 -1 1
2638 880 1 -0.826 -5.512466073454036 3.761540383259124 -9.623134474105402 1 1 1
2755 919 1 -0.826 -2.716223089013411 7.503742987105394 -2.4948947659485654 1 -1 0
2157 719 2 0.413 -8.885337841331065 2.692464049570436 -1.0800886194315495 1 -1 0
2868 956 2 0.413 -5.788484774533245 1.1793214937915906 -1.9866193416038236 1 0 0
2156 719 2 0.413 -9.08725180709763 1.4365436036720922 -1.939711536444701 1 -1 0
2378 793 2 0.413 -8.23503470228276 7.719410433564876 -10.120113560049505 1 0 0
2362 788 1 -0.826 -8.900355564090276 3.6598195485542853 -5.98949647830797 1 -1 1
2363 788 2 0.413 -8.725316295107348 3.893852046882156 -5.045920363671826 1 -1 1
2797 933 1 -0.826 -10.86382015141539 11.535299088801219 -4.256391669366823 1 -1 0
2640 880 2 0.413 -5.612761847329438 3.329619394558325 -8.74736726611656 1 1 1
2811 937 2 0.413 -3.041985409846589 0.5423008991152045 -2.5563869393343968 1 -1 0
2866 956 1 -0.826 -6.658839695080005 1.1395868635716884 -1.5082130440403052 1 0 0
2867 956 2 0.413 -7.086969659408695 0.411983366082719 -1.9474316423807867 1 0 0
2662 888 1 -0.826 -0.2575617468579594 2.614814200811825 -9.884951970866439 1 1 0
2888 963 2 0.413 -8.941521333342436 8.62216697085852 -11.837323494932832 1 0 1
1041 347 2 0.413 -1.4627949200116461 9.086423859915469 -0.07862054960660991 0 -1 0
212 71 2 0.413 5.821829887281078 -6.768892989323636 -2.420583125089154 0 -1 0
830 277 2 0.413 5.479045318977443 -5.272457365122207 -7.073127879889608 0 0 0
472 158 1 -0.826 3.317390920668908 -1.6116493686965914 -2.9611865455212083 0 0 0
589 197 1 -0.826 1.6323538607459174 -0.11601251940760093 -5.959895171190353 0 -1 0
855 285 2 0.413 0.9495209007964327 -10.558333415298865 -7.777148645237408 0 0 0
966 322 2 0.413 2.283938407187769 -9.136027056646519 -6.730786353296406 0 1 1
671 224 2 0.413 1.291367007189649 -11.590037217280212 -5.0540150504497925 0 0 0
611 204 2 0.413 1.514382495687597 -8.032471878205941 -2.96792482794854 0 0 -1
417 139 2 0.413 1.032675362501358 -5.164560474912449 -7.9733697587509305 0 1 1
251 84 2 0.413 -11.806885105982248 -6.083570056015388 -7.462354364397627 0 0 0
473 158 2 0.413 3.376382007553092 -0.6762324075932167 -3.2119693413192536 0 0 0
610 204 1 -0.826 1.8940680417679943 -8.328865203488588 -3.831031234385211 0 0 -1
415 139 1 -0.826 0.875397538951443 -6.044898609983594 -8.394417289816948 0 1 1
635 212 2 0.413 5.382971480713932 -1.9014432013103146 -0.63236717522798 0 0 -1
663 221 2 0.413 4.06436600574944 -5.693996703727382 -3.7989710545963042 0 1 -1
820 274 1 -0.826 4.300892779678351 -0.11389186279052055 -7.942127983225487 0 1 0
883 295 1 -0.826 0.8355340249228629 -7.3433257936124114 -1.4146148039352084 0 1 0
416 139 2 0.413 1.35122947643268 -6.704883934088961 -7.8555233567038165 0 1 1
823 275 1 -0.826 5.924990105640214 -3.0460856497892514 -2.4154911487742687 0 1 -1
965 322 2 0.413 2.5705917232246502 -8.026872720465366 -5.753217446162605 0 1 1
662 221 2 0.413 3.955016518020633 -6.31297673634073 -5.240058247535643 0 1 -1
474 158 2 0.413 4.257074527441345 -1.754424690667026 -2.639851005102786 0 0 0
853 285 1 -0.826 0.8251440500721685 -11.055304349094646 -6.9360936606440164 0 0 0
1005 335 2 0.413 5.170019030812037 -7.534370450543562 -8.654462846985908 0 0 0
1004 335 2 0.413 4.180344262402263 -8.6124498730313 -8.243099426132275 0 0 0
885 295 2 0.413 0.8034697896122935 -7.684827496582617 -0.5179164994055085 0 1 0
252 84 2 0.413 -11.895576946816641 -6.102669418031194 -5.985840554872592 0 0 0
964 322 1 -0.826 2.7278864003834506 -8.28429292049873 -6.659503247585956 0 1 1
190 64 1 -0.826 3.5776148256335656 -1.911787111184621 -11.092299153649448 0 0 1
612 204 2 0.413 2.1994060301917084 -9.218963380731747 -3.4877392068734743 0 0 -1
1003 335 1 -0.826 4.767002042660801 -8.3709138904758 -8.994622188353755 0 0 0
661 221 1 -0.826 4.312616328707469 -5.593625909675108 -4.7620312833216225 0 1 -1
71 24 2 0.413 1.1904334164103787 0.0018170345537740218 -1.33302458488801 0 0 0
670 224 1 -0.826 0.9507522908996577 -12.104734299565873 -4.218226854931827 0 0 0
829 277 1 -0.826 5.880402601150424 -5.918169710673604 -7.6520908810132795 0 0 0
465 155 2 0.413 3.772014404023883 -6.583610589970509 -0.5102917141391252 0 0 0
191 64 2 0.413 2.8357680944812493 -2.5437439129275194 -10.949546689593863 0 0 1
825 275 2 0.413 5.818251241943857 -4.021669917212652 -2.6046935690276847 0 1 -1
192 64 2 0.413 4.093968443241012 -1.9262422640188994 -10.278196790540107 0 0 1
854 285 2 0.413 -0.13561534695067934 -11.058594737020487 -6.992557849817417 0 0 0
1112 371 2 0.413 5.232020625112408 -4.098179523575634 -5.309574266660061 0 -1 -1
1326 442 2 0.413 5.437453113808704 -9.283088575097416 -3.0838655100285166 0 1 0
1577 526 2 0.413 0.16964982372136106 -4.737508068971451 -11.731694281790492 0 2 1
1111 371 1 -0.826 5.453930634943259 -3.214306007876516 -5.831856756022912 0 -1 -1
1471 491 1 -0.826 3.516842703491875 -11.085764231984026 -2.7266171543350097 0 1 0
1578 526 2 0.413 0.6806309509297002 -3.3260800756899513 -11.735502102260496 0 2 1
1576 526 1 -0.826 0.9146652632647552 -4.224493817444198 -11.491935165241625 0 2 1
1113 371 2 0.413 4.650937493641305 -2.803995608576269 -5.89016152007224 0 -1 -1
1473 491 2 0.413 2.7249282586607855 -11.669319744388888 -2.7738818745731795 0 1 0
2074 692 1 -0.826 4.026728121777058 -11.355121871201575 -11.35328135150148 0 0 0
2076 692 2 0.413 4.1839150770004885 -10.810569613689353 -10.535559629929523 0 0 0
1472 491 2 0.413 4.063308605652335 -11.677440531898188 -2.1623446921844245 0 1 0
2906 969 2 0.413 2.226722038131058 -6.201898533146943 -2.1171889284712684 1 0 -1
2791 931 1 -0.826 1.3279046836070307 -3.4688806870805813 -2.3522713939298825 1 0 1
2193 731 2 0.413 2.180772835356194 -3.8601528350652146 -6.646191704112102 1 0 1
2793 931 2 0.413 0.9064388742299343 -2.9263042432131137 -1.644537330114428 1 0 1
2907 969 2 0.413 2.713017330460943 -4.868596664329835 -2.320526242892928 1 0 -1
2905 969 1 -0.826 3.0690971324362266 -5.779632930030394 -2.2165162629037454 1 0 -1
2944 982 1 -0.826 3.3582661156586227 -6.716154393755701 -11.39676653367769 1 1 0
2192 731 2 0.413 1.804519173828183 -2.590489177201528 -7.318912058147578 1 0 1
2945 982 2 0.413 2.527153164177676 -7.218219801836991 -11.56753450545774 1 1 0
2946 982 2 0.413 3.7717141935437866 -7.159353436295699 -10.660581801409013 1 1 0
2191 731 1 -0.826 1.684845936849328 -3.530159942890835 -7.433997570871558 1 0 1
2792 931 2 0.413 2.0080280888288797 -2.8975022730970235 -2.7817141248213417 1 0 1
3009 1003 2 0.413 2.0979602982620946 -11.053086325078821 -12.002972814186139 1 1 0
2501 834 2 0.413 -0.19427120075378923 -0.6595699481566797 -11.985739997883037 1 1 0
614 205 2 0.413 3.108103878013157 1.8787723302239634 -3.0358119641783095 0 0 0
45 15 2 0.413 1.0143410312258148 4.937139238591072 -0.8810222370239504 0 -2 0
570 190 2 0.413 4.5000910870318 4.20059101958206 -6.752042977796101 0 -1 1
795 265 2 0.413 3.5361926212525 10.265881684943077 -3.6625232206313036 0 0 0
529 177 1 -0.826 0.2995102490968904 5.10848448433171 -6.35276225218557 0 0 0
304 102 1 -0.826 -0.00747815378455563 9.804226656559512 -11.815783631349616 0 0 0
939 313 2 0.413 1.738560667163851 8.769191855830508 -4.951704582420132 0 0 0
305 102 2 0.413 0.39809217620978465 10.657933395207897 -11.576645829806482 0 0 0
569 190 2 0.413 5.961177620582875 3.5556118840434294 -7.102387283247744 0 -1 1
880 294 1 -0.826 5.572207583240514 4.006231275671885 -3.3509234420439142 0 0 2
591 197 2 0.413 2.4488773252606535 -0.04268754376295547 -6.485147880313526 0 -1 0
590 197 2 0.413 1.6407220158145392 0.7614176149494476 -5.5128075961469705 0 -1 0
620 207 2 0.413 5.360301203585832 10.50049609691274 -7.589064130603511 0 -1 -1
615 205 2 0.413 1.6845723568536126 2.0810381206224307 -3.048125253728802 0 0 0
158 53 2 0.413 4.021079188620307 10.150376578808784 -0.6339377697357627 0 -1 0
137 46 2 0.413 4.038748039050843 8.540080839741561 -8.787199943433759 0 -1 1
44 15 2 0.413 1.0330126418980203 3.756593634068082 -0.03946876772383945 0 -2 0
418 140 1 -0.826 4.05207475985487 5.022779662575093 -10.46720609243388 0 1 1
613 205 1 -0.826 2.468766298317963 2.2685395023658366 -3.6448305778077703 0 0 0
794 265 2 0.413 3.6142896016253623 8.76976842856507 -3.460408270169342 0 0 0
159 53 2 0.413 5.223870730467043 10.237627407779398 -1.4573622295163808 0 -1 0
157 53 1 -0.826 4.328674724098837 10.595906745630112 -1.472632542642005 0 -1 0
882 294 2 0.413 4.81677499038822 4.594319132950096 -3.5933047062435293 0 0 2
619 207 1 -0.826 4.362039255266891 10.487306637089203 -7.659612367327082 0 -1 -1
793 265 1 -0.826 3.580434584881104 9.4182456783594 -4.194589550515099 0 0 0
878 293 2 0.413 5.830268145674294 5.545902559444491 -9.610157206163759 0 0 1
531 177 2 0.413 0.19495651912409784 6.087759275109589 -6.210358421965305 0 0 0