LAMMPS data file via write_data, version 2 Aug 2023, timestep = 1000000, units = real

1491 atoms
5 atom types
686 bonds
1 bond types
343 angles
1 angle types

-12.120000000000001 12.120000000000001 xlo xhi
-12.120000000000001 12.120000000000001 ylo yhi
-28.28 28.28 zlo zhi

Masses

1 15.9994
2 1.008
3 28.99
4 35.453
5 26.9815

Pair Coeffs # lj/cut/tip4p/long

1 0.185199 3.1589
2 0 0
3 0.0469 2.4299
4 0.15 4.0447
5 11.697 2.574

Bond Coeffs # harmonic

1 0 0.9572

Angle Coeffs # harmonic

1 0 104.52

Atoms # full

478 16 1 -1.1128 -8.833014706731138 -9.95806264642961 -6.104061229227659 0 0 0
86 0 5 0 -10.777977391648292 -9.878398367404698 -9.068361002010505 0 0 0
484 18 1 -1.1128 -6.565908248818676 -8.230008649295847 -6.677042114308913 0 0 0
451 7 1 -1.1128 -10.975217060939643 -7.944546668228171 -6.719215295982508 1 0 0
544 38 1 -1.1128 -8.973480616026118 -5.9662917779659175 -6.575593860887868 0 0 0
545 38 2 0.5564 -9.605137662115256 -5.2840063237608 -6.803018702586311 0 0 0
452 7 2 0.5564 -11.131596179848431 -8.148600899721828 -5.797186307402916 1 0 0
453 7 2 0.5564 -11.212074441490746 -8.746002481917188 -7.185901572468379 1 0 0
480 16 2 0.5564 -8.148726108104634 -10.618316907819578 -6.213870564896412 0 0 0
485 18 2 0.5564 -6.014096122778402 -7.452865379575742 -6.588774132278784 0 0 0
479 16 2 0.5564 -8.363884186077414 -9.123705521012495 -6.105519156325679 0 0 0
546 38 2 0.5564 -9.281439789787525 -6.743494034354419 -7.041795616504026 0 0 0
486 18 2 0.5564 -5.983161159548687 -8.898439580002398 -7.037386897353479 0 0 0
1153 241 1 -1.1128 -6.912407689023629 -3.9205566778014345 -6.5553069534800255 0 0 0
1045 205 1 -1.1128 -10.607993633335692 -3.903192908809876 -6.287394916730536 0 0 0
1154 241 2 0.5564 -6.734429472813817 -4.140079983159231 -5.6407753683436725 0 0 0
1155 241 2 0.5564 -7.555572788175621 -4.570910696577299 -6.837437937193489 0 0 0
1047 205 2 0.5564 -10.037189868026601 -3.150742787669896 -6.131700320090832 0 0 0
1046 205 2 0.5564 -11.463981183187618 -3.5196580918677443 -6.478196584699285 0 0 0
291 0 5 0 -8.852517810254604 -3.995709281909591 -8.88926305979342 0 0 0
100 0 5 0 -6.806884682719303 -5.997884214904545 -8.980280216116677 0 0 0
99 0 5 0 -8.877726245854404 -7.842885179830156 -8.98273851139475 0 0 0
88 0 5 0 -6.92931526606015 -10.031297678072171 -9.025728073866087 0 0 0
98 0 5 0 -10.93573131959625 -5.860317425742011 -9.13123983389766 0 0 0
55 0 5 0 -6.861416428142486 -7.982596823299099 -11.027364083086605 0 0 0
56 0 5 0 -8.830865972116568 -5.905344372159468 -11.027146734964798 0 0 0
219 0 5 0 -10.851840371615129 -3.904972031759262 -11.079236349738405 0 0 0
223 0 5 0 -6.812082963147781 -3.8926401859685495 -10.897723344594334 0 0 0
32 0 5 0 -8.908877666293492 -10.002236693089838 -11.128888290091108 0 0 0
51 0 5 0 -10.815591745764735 -7.921844985817657 -11.145303058460458 0 0 0
30 0 5 0 -6.77424350573685 -10.021509596544366 -13.138603275712633 0 0 0
222 0 5 0 -6.711744122126511 -1.8385851933813004 -12.97910529616916 0 0 0
218 0 5 0 -10.784980852640137 -1.8324928823614577 -13.059245123866656 0 0 0
292 0 5 0 -6.895783633443167 -1.857399450420009 -8.969198643300107 0 0 0
221 0 5 0 -8.7332646339171 -3.8680202154566676 -13.0736058939887 0 0 0
224 0 5 0 -8.786019599147581 -1.932947186423103 -10.994654086657588 0 0 0
290 0 5 0 -10.830870335013143 -1.9213232739549952 -8.99489153743376 0 0 0
50 0 5 0 -10.709545233136016 -5.911402644230669 -13.139064922794887 0 0 0
54 0 5 0 -6.822366841385233 -5.862127448438475 -12.943468522725109 0 0 0
53 0 5 0 -8.71842941547349 -8.049133361960154 -13.134977238338843 0 0 0
26 0 5 0 -10.942903968195077 -9.923370317226306 -13.133601397372697 0 0 0
36 0 5 0 -4.9229520270598535 -9.998973728166291 -11.11048781657717 0 0 0
481 17 1 -1.1128 -4.633070656589178 -10.18943843269328 -6.792979387179628 0 0 0
547 39 1 -1.1128 -4.859071777789094 -6.101690466224654 -6.564657910858503 0 0 0
101 0 5 0 -4.85442995678136 -8.062481406164046 -9.007638994098572 0 0 0
60 0 5 0 -4.798306799225121 -5.914561371703692 -11.008014686748718 0 0 0
225 0 5 0 -4.8282755781081175 -3.8622194523689872 -12.969590656218534 0 0 0
57 0 5 0 -4.859297396565761 -8.01458515089592 -13.089068302479179 0 0 0
1048 206 1 -1.1128 -8.506777116114733 -1.9528703119812674 -6.137048000905312 0 0 0
964 178 1 -1.1128 -5.055852089157142 -1.6857368619850635 -6.368397677641771 0 0 0
228 0 5 0 -4.758742575746809 -1.9277343470456645 -10.876916590444313 0 0 0
293 0 5 0 -4.855568659691485 -4.0214758279096285 -8.91117093472441 0 0 0
1050 206 2 0.5564 -7.970975388710534 -2.7293911773577872 -6.298824792985281 0 0 0
1049 206 2 0.5564 -8.59376201198947 -1.9155081885793361 -5.184541693846636 0 0 0
643 71 1 -1.1128 -4.005961132971972 -1.1456419783054588 -3.5751807249392704 1 -1 0
659 76 2 0.5564 -5.318366967426525 -4.663216329035661 -3.9248957909382973 1 -1 0
658 76 1 -1.1128 -6.254910618233978 -4.4675868716369305 -3.9542722673333937 1 -1 0
724 98 1 -1.1128 -8.896365217521705 -7.0813293456524145 -4.059271249660421 2 0 0
725 98 2 0.5564 -8.823421820103906 -6.711220505566256 -4.939005860546899 2 0 0
483 17 2 0.5564 -4.80045332873079 -10.314420881080572 -5.858852317889991 0 0 0
600 56 2 0.5564 -7.841150220388395 -9.91242715076118 -2.1039752728178205 2 0 0
599 56 2 0.5564 -6.823664439467225 -8.867111039715374 -2.5088592145955615 2 0 0
598 56 1 -1.1128 -7.160470605171442 -9.341021964353235 -1.7484596952876146 2 0 0
997 189 1 -1.1128 -5.849939365834514 -8.0502827898086 -3.749253100761 1 0 0
966 178 2 0.5564 -5.472762590070458 -2.5046337388944053 -6.63638639665088 0 0 0
999 189 2 0.5564 -6.13161341921159 -8.057959749350108 -4.664036510224807 1 0 0
617 62 2 0.5564 -7.440872693404817 -2.8711845769684032 -3.383804687372497 3 0 0
660 76 2 0.5564 -6.677410597009796 -5.2700245944108115 -3.647982903105189 1 -1 0
965 178 2 0.5564 -5.7516487771124885 -1.0311862172091735 -6.428847481861146 0 0 0
1068 212 2 0.5564 -9.090868694568686 -5.005814153342922 -1.8119846686593812 2 0 0
1066 212 1 -1.1128 -8.546236324038771 -5.791699508121984 -1.7674427375176094 2 0 0
899 156 2 0.5564 -7.547443600979806 -0.4390488433253502 -6.362610530119941 0 0 0
998 189 2 0.5564 -4.962112624903775 -7.693391507139803 -3.7745121456037865 1 0 0
1067 212 2 0.5564 -8.73776871397388 -6.262707618404989 -2.578427289773355 2 0 0
908 159 2 0.5564 1.2203969658791942 -0.21666289372075923 -5.613017559915061 0 0 0
1142 237 2 0.5564 -7.332837634798652 -2.235653034610141 -0.2592234064568694 2 -1 0
745 105 1 -1.1128 -9.327125971729755 -10.325836520536084 -3.5535067275180996 2 0 0
747 105 2 0.5564 -9.443107477334362 -11.272716845129944 -3.632220621256936 2 0 0
726 98 2 0.5564 -9.712323221875495 -7.581475176228612 -4.076215188494734 2 0 0
523 31 1 -1.1128 -11.381623470834938 -8.154682756686135 -3.8897860210208774 3 -1 0
525 31 2 0.5564 -11.389137943000637 -9.110381132598746 -3.9428546833956344 3 -1 0
1296 288 2 0.5564 11.933688475584786 -3.8023974403323617 -1.5006128609899785 1 0 0
746 105 2 0.5564 -9.164962330448093 -10.02866808010748 -4.44884381102761 2 0 0
524 31 2 0.5564 11.998453952945344 -7.927181458715573 -3.5362409301629256 2 -1 0
1368 312 2 0.5564 -10.660260836338692 -5.335191539575177 -3.7680302497621976 1 1 0
1366 312 1 -1.1128 -10.772340078999807 -4.649305973602503 -3.1098261451001945 1 1 0
1367 312 2 0.5564 -11.41849533560778 -4.054565026435302 -3.4905983401551466 1 1 0
872 147 2 0.5564 -0.48871089356643194 -0.03532339417661173 -1.9629309858198738 2 -1 0
540 36 2 0.5564 -4.839385868121679 -1.9657200917686195 -1.8772379517159732 2 0 0
1141 237 1 -1.1128 -8.085521872357845 -1.7472645055406668 -0.5926696456216174 2 -1 0
616 62 1 -1.1128 -8.014737320779576 -2.109191150428957 -3.3045145012392965 3 0 0
618 62 2 0.5564 -8.125543967380532 -1.989323117058422 -2.361336373991111 3 0 0
456 8 2 0.5564 -6.524229017510883 -12.054053528804044 -7.422125095600252 0 0 0
1160 243 2 0.5564 -4.24567774082818 -8.410717192493356 -1.0166321693346552 2 0 0
1008 192 2 0.5564 -10.975076286650445 -1.1355375237712846 -3.963849591866125 2 0 0
830 133 2 0.5564 1.5205664380971806 -11.661161341959822 -1.822885530057424 3 0 0
1219 263 1 -1.1128 -8.925671978623098 -8.078660455099664 -0.10235232486585655 3 0 0
37 0 5 0 -0.8022672796641459 -12.008518264815228 -13.056707634225459 0 0 0
971 180 2 0.5564 -5.034513863632731 -9.989387136088348 -3.516629733334026 3 0 0
970 180 1 -1.1128 -4.752156105877255 -10.783265150459256 -3.970787757931045 3 0 0
1201 257 1 -1.1128 -11.421596126149874 -6.335934867981761 -0.4606241745440869 2 1 0
1203 257 2 0.5564 -10.646314984200849 -6.179685000640424 -0.9998551667348385 2 1 0
1220 263 2 0.5564 -8.275447873124312 -8.379257656481311 -0.7372485813920419 3 0 0
548 39 2 0.5564 -5.586633866699048 -5.48754950382354 -6.663169861247369 0 0 0
594 54 2 0.5564 7.987339746815913 -8.467066534219486 -0.14854665544574627 2 -1 0
549 39 2 0.5564 -4.166107036771233 -5.743808273471565 -7.1196034737524005 0 0 0
645 71 2 0.5564 -4.181892842620123 -0.216565087898235 -3.7238201143549756 1 -1 0
972 180 2 0.5564 -5.306419635233961 -11.475688207444387 -3.610830795292546 3 0 0
538 36 1 -1.1128 -4.907029591318091 -2.101636290103689 -0.9321537612957688 2 0 0
1006 192 1 -1.1128 -10.561274468385465 -0.2932412656421272 -4.152345951834603 2 0 0
833 134 2 0.5564 -5.374880518210529 -6.402660556046939 -0.46407931134591235 2 0 0
831 133 2 0.5564 1.0739723195049524 -12.049478915258208 -0.42945144077145897 3 0 0
95 0 5 0 7.368053482688914 -12.01294119004693 -8.92705056620316 0 0 0
1221 263 2 0.5564 -9.707777393051495 -7.902008295327163 -0.62515891699699 3 0 0
644 71 2 0.5564 -4.396690606271805 -1.5874958315709844 -4.329052509254763 1 -1 0
482 17 2 0.5564 -3.9953036264753905 -9.476568061333188 -6.829233498208631 0 0 0
543 37 2 0.5564 -10.15474150782095 -11.318955742188392 -6.554615144077593 0 0 0
31 0 5 0 -6.8670350486270575 -12.090322282357459 -11.054986878671924 0 0 0
458 9 2 0.5564 11.956510595871746 -10.801362283077415 -6.9322506782850954 -1 0 0
85 0 5 0 11.437083794589626 -11.965502481653779 -9.082046802506945 -1 0 0
93 0 5 0 3.2799098460090743 -12.087536862677696 -9.013573297287447 0 0 0
708 92 2 0.5564 -2.4645380003222295 -11.539377427269606 -0.5386405720387148 1 0 0
495 21 2 0.5564 10.15940985532089 -4.7736822671086605 -6.783223443158301 0 0 0
829 133 1 -1.1128 1.592237008045373 -11.400093866424193 -0.904768344937251 3 0 0
1143 237 2 0.5564 -8.845336404003932 -2.189123858146444 -0.2136394674339999 2 -1 0
575 48 2 0.5564 10.12135594112692 -5.973126839964772 -0.63790115588562 2 -1 0
834 134 2 0.5564 -6.822389654038647 -5.962010318343522 -0.4146520408143011 2 0 0
457 9 1 -1.1128 11.442858093643506 -10.040269136699209 -6.661806817566567 -1 0 0
587 52 2 0.5564 4.163978676464708 -0.7803602487856474 -0.13004043567592533 1 -1 0
706 92 1 -1.1128 -2.9409711208721854 -11.64449562974862 -1.3621698115260188 1 0 0
539 36 2 0.5564 -4.021822180922341 -2.344416781988619 -0.6606557700686196 2 0 0
47 0 5 0 9.368093594529771 -12.005658291102357 -11.041021358924322 0 0 0
454 8 1 -1.1128 -7.04562372756145 -11.996196266237163 -6.621476096749517 0 0 0
1161 243 2 0.5564 -3.2290805684896826 -7.378632274404894 -0.5770542586560532 2 0 0
1070 213 2 0.5564 0.3743392307078835 -9.835426169754632 -0.786924787828964 2 0 0
730 100 1 -1.1128 -1.6335084672314069 -4.147012604985523 -2.24514674176581 1 -1 0
1159 243 1 -1.1128 -3.9791792060725575 -7.502403995920799 -1.1586685284259066 2 0 0
731 100 2 0.5564 -2.468045648363393 -4.462307354203434 -2.592070950519009 1 -1 0
626 65 2 0.5564 -3.2815261444715484 -4.732799743137012 -5.094981986407277 1 -1 0
732 100 2 0.5564 -1.8777485174765924 -3.5514053635750065 -1.5367495675116782 1 -1 0
627 65 2 0.5564 -3.1273445027361575 -5.800633188697454 -4.0329763319954415 1 -1 0
625 65 1 -1.1128 -3.458240869429107 -4.9132200893157485 -4.171696426837954 1 -1 0
903 157 2 0.5564 -2.175812557402297 -0.6328964886701217 -6.581223722420883 0 0 0
1013 194 2 0.5564 -2.9906661183879617 -7.544077632489123 -2.6943606460542333 2 1 0
1175 248 2 0.5564 -2.049098588790925 -1.501833536506726 -3.8208488874689426 1 1 0
1012 194 1 -1.1128 -2.788910960816557 -7.582419512369885 -3.6292691228069467 2 1 0
1134 234 2 0.5564 2.344739509454633 -10.817776302927497 -3.5632209165457733 1 0 0
1277 282 2 0.5564 -0.514615605668347 -5.262375670018044 -3.1853595363769553 2 1 0
1278 282 2 0.5564 0.7618766749064045 -6.0506816449757 -3.3879405210699662 2 1 0
1276 282 1 -1.1128 0.026754413594649286 -5.664911332208794 -3.8644086445034924 2 1 0
1189 253 1 -1.1128 2.417763973953682 -3.604356996251946 -3.9533672398002437 1 -1 0
527 32 2 0.5564 -3.4232931804281983 -11.49802867820601 -6.385904638816658 0 0 0
1014 194 2 0.5564 -1.9847733517467379 -8.099149589831901 -3.6802482275217674 2 1 0
1071 213 2 0.5564 -0.3836270574289076 -9.087523788668078 -1.8630395566979998 2 0 0
853 141 1 -1.1128 1.557924684576937 -8.000745424688565 -3.764372650639528 2 0 0
855 141 2 0.5564 0.7547869110328724 -8.510651439728468 -3.6586044277324916 2 0 0
1478 0 4 -1.1 -0.8656648342804117 -9.851169814901704 -3.7255667007963416 0 0 0
500 23 2 0.5564 2.184096603969135 -6.517529387805518 -1.4145647619337887 1 -1 0
499 23 1 -1.1128 1.3635352170875443 -6.401108827104958 -0.9356391349460094 1 -1 0
854 141 2 0.5564 1.4883405966129712 -7.622435819509635 -4.640882923754775 2 0 0
1132 234 1 -1.1128 1.6481627431721488 -11.466153782293643 -3.6663325979513868 1 0 0
887 152 2 0.5564 -0.7686067689937202 -2.309361366127596 -5.708235433157499 0 0 0
62 0 5 0 1.3377099234864847 -5.963445894926115 -13.0002785122255 0 0 0
294 0 5 0 -2.7981046381641304 -1.9594481234374417 -8.859421403032595 0 0 0
64 0 5 0 -0.8056584182930043 -6.057987674780933 -11.088922892466089 0 0 0
59 0 5 0 -2.8563878704381587 -8.057794975987465 -11.078957789568516 0 0 0
232 0 5 0 -0.7600101854185126 -1.9891007502670972 -11.010099986590465 0 0 0
885 151 2 0.5564 -2.1220857806685594 -4.595530131029793 -6.7745902706509895 0 0 0
889 153 1 -1.1128 1.2793832391355158 -3.9260192234711258 -6.603264804468031 0 0 0
883 151 1 -1.1128 -2.865194119488584 -3.992467127433123 -6.755939851158561 0 0 0
884 151 2 0.5564 -2.481307038559924 -3.13314040233687 -6.930376727897292 0 0 0
1058 209 2 0.5564 0.9562171285373587 -8.625224536346066 -6.887717378764286 0 0 0
530 33 2 0.5564 0.17547237827006903 -10.820710011355656 -6.661583828995 0 0 0
969 179 2 0.5564 -2.6802217512133977 -8.50255134486172 -5.492346169719757 0 0 0
531 33 2 0.5564 -0.5346118955088462 -9.995889050410126 -5.609280080002546 0 0 0
551 40 2 0.5564 -1.6555314357403663 -6.66205409934279 -6.661267179861102 0 0 0
968 179 2 0.5564 -1.82124556163696 -9.023866646057584 -6.6247262616859155 0 0 0
967 179 1 -1.1128 -2.5596500685058343 -8.443428947355619 -6.440078601992471 0 0 0
529 33 1 -1.1128 -0.3996679813185169 -10.063084892887101 -6.554533336115993 0 0 0
550 40 1 -1.1128 -0.9501022844797998 -6.031348635924577 -6.517036272441942 0 0 0
1059 209 2 0.5564 0.25070117219258964 -7.347073715604253 -6.487128429703262 0 0 0
1057 209 1 -1.1128 1.1218150320412161 -7.724603138666492 -6.608990908543062 0 0 0
890 153 2 0.5564 0.6583574433017756 -4.65379469412262 -6.633125699215078 0 0 0
552 40 2 0.5564 -0.7285607092257093 -6.1267416327450945 -5.5907238265109775 0 0 0
295 0 5 0 -0.7192269680477691 -3.95823885959002 -9.021167117457379 0 0 0
891 153 2 0.5564 0.8762792274596573 -3.2443320745504676 -7.14088544820484 0 0 0
102 0 5 0 -2.750173507528866 -5.963550313666578 -9.07976073699734 0 0 0
104 0 5 0 1.2278485480997219 -5.971830968567474 -9.01507931286765 0 0 0
103 0 5 0 -0.8335226900296024 -8.087078265480608 -9.107375475283698 0 0 0
90 0 5 0 -2.916993144613006 -10.03852579698456 -9.063130154914562 0 0 0
92 0 5 0 1.237322486438708 -10.026645226584252 -9.057107745750901 0 0 0
63 0 5 0 1.262690978952447 -8.030499492704184 -11.032692816048216 0 0 0
34 0 5 0 -2.897394618855232 -10.024345877957826 -13.079329344167279 0 0 0
227 0 5 0 -2.8133818453785153 -3.9453316297773116 -10.987877642970359 0 0 0
231 0 5 0 1.2747345944768351 -3.965943890829685 -11.0390217438256 0 0 0
40 0 5 0 -0.8330669389909642 -10.055328947670672 -11.118331864881547 0 0 0
296 0 5 0 1.2180030770774894 -1.8888334076594582 -8.97368851323367 0 0 0
886 152 1 -1.1128 -0.9060748569306326 -1.9361398933812517 -6.578892032932267 0 0 0
888 152 2 0.5564 -0.18996259261647191 -1.3103408045920695 -6.68753448779274 0 0 0
38 0 5 0 1.2810048151928635 -10.028935508445361 -13.100976842237793 0 0 0
58 0 5 0 -2.921376952334471 -5.97866298847083 -13.050935878736642 0 0 0
230 0 5 0 1.2666077648809666 -2.0512354175884764 -13.00481960125252 0 0 0
61 0 5 0 -0.812850539097958 -7.985885291410562 -13.086608281616687 0 0 0
226 0 5 0 -2.7345819158776026 -1.8931201134006062 -13.002183233018208 0 0 0
229 0 5 0 -0.7533131020670073 -4.005971540689025 -13.06680607769499 0 0 0
65 0 5 0 3.342448574454769 -7.954121254361395 -13.017167835504505 0 0 0
297 0 5 0 3.231459904672426 -3.9085405836862583 -8.98511566095661 0 0 0
233 0 5 0 3.2755519609883694 -4.027403811637038 -13.014998575487397 0 0 0
236 0 5 0 3.256321683753374 -1.898431845586685 -11.00179548528689 0 0 0
44 0 5 0 3.3056547647202716 -10.020262384172424 -11.062402571897398 0 0 0
68 0 5 0 3.3224225327077614 -5.9606642153485305 -11.002113797993314 0 0 0
472 14 1 -1.1128 3.184567676894412 -10.22098353465148 -6.3343509413857815 0 0 0
105 0 5 0 3.2057593435601923 -8.009515282488602 -9.023859066658511 0 0 0
487 19 1 -1.1128 3.2602658854826743 -5.940208698089592 -6.564733965271431 0 0 0
489 19 2 0.5564 2.9862782480701267 -5.056853958988729 -6.811397052487906 0 0 0
488 19 2 0.5564 2.5025138141373153 -6.490551635230667 -6.76261289915694 0 0 0
490 20 1 -1.1128 3.4704632675902487 -1.8260829067774824 -6.623540623658933 0 0 0
474 14 2 0.5564 3.263382749277083 -10.112463728455916 -5.386592782477399 0 0 0
473 14 2 0.5564 2.514071394284667 -10.895286747859334 -6.443766983221717 0 0 0
1133 234 2 0.5564 0.8380001877564568 -10.961459957175173 -3.5946505266113196 1 0 0
1096 222 1 -1.1128 1.9756299622397908 -2.240322910754357 -1.5739954977900064 2 0 0
1097 222 2 0.5564 2.098840742086455 -2.702206114495577 -2.403283550263653 2 0 0
1190 253 2 0.5564 2.0038186717959445 -4.014389891173294 -4.712806947868798 1 -1 0
501 23 2 0.5564 0.8708847042547639 -7.2041565016982485 -1.1048598731195565 1 -1 0
1069 213 1 -1.1128 -0.06453561303924367 -9.003506961461648 -0.964513992220101 2 0 0
1098 222 2 0.5564 1.1824090698497962 -1.7206618428079918 -1.704269483916345 2 0 0
492 20 2 0.5564 2.6625350645536825 -2.279638259380816 -6.863876120305545 0 0 0
1174 248 1 -1.1128 -1.1471043187862728 -1.8084983266010837 -3.7282132975335167 1 1 0
1176 248 2 0.5564 -1.216392963395759 -2.60027386515442 -3.1948080960653433 1 1 0
1191 253 2 0.5564 3.3346032007796755 -3.874570645711065 -4.004737937159197 1 -1 0
776 115 2 0.5564 3.7001824662215803 -9.214250992869331 -3.37952491217718 1 0 0
1264 278 1 -1.1128 4.059368168896087 -6.936522566955736 -1.6167946747390176 2 0 0
902 157 2 0.5564 -3.676581468872642 -0.43501892698239025 -6.602060303365165 0 0 0
1265 278 2 0.5564 4.447389455735232 -7.699312408534716 -1.1880427489538938 2 0 0
1266 278 2 0.5564 4.275346809728663 -6.202340993493737 -1.0418467367117406 2 0 0
775 115 1 -1.1128 4.141077047006471 -10.02418791369675 -3.6361193491302846 1 0 0
1274 281 2 0.5564 -11.568820923405195 -1.4967940885159121 -0.36489684930971783 3 0 0
1464 0 3 1.1 -2.3817544828499435 -11.75629206453077 -3.683103900902993 0 0 0
707 92 2 0.5564 -3.806349252624257 -11.274495208832697 -1.1876984308313838 1 0 0
1275 281 2 0.5564 -10.969557066977918 -0.13184852654969467 -0.6289082845827574 3 0 0
45 0 5 0 7.34087844518411 -12.103818645152083 -13.079391980351941 0 0 0
609 59 2 0.5564 3.227281151431634 -1.0312688465246822 -2.1735872330662063 2 -1 0
27 0 5 0 -10.917051283112293 -12.014029087357818 -11.09621705839512 0 0 0
1037 202 2 0.5564 4.880929047404019 -11.459292210394308 -1.5399600201136032 1 0 0
558 42 2 0.5564 8.6031780615425 -0.48910403743129843 -6.603324929622537 0 0 0
1272 280 2 0.5564 6.253573682463488 -7.835328695708219 -3.4797072159925895 2 0 0
1164 244 2 0.5564 11.335847057401478 -11.742460950271967 -3.6633309579362554 2 0 0
1317 295 2 0.5564 10.275447995192405 -0.3292958215043011 -1.5688569713128566 2 0 0
963 177 2 0.5564 -11.904852335144078 -5.129279854708358 -6.499890460968343 0 0 0
91 0 5 0 -0.8254108785231196 -12.008260210952463 -9.055389764887567 0 0 0
1076 215 2 0.5564 6.4861442022266065 -2.5874892296043734 -0.5041932089161434 2 -1 0
1462 0 3 1.1 6.904817005111214 -3.330027632617464 -3.1507725249383167 0 0 0
1295 288 2 0.5564 11.102506827578477 -3.269530625895343 -0.35297026622671324 1 0 0
576 48 2 0.5564 10.402496967806528 -5.9282792205158605 -2.124791206518008 2 -1 0
984 184 2 0.5564 -11.940956152452527 -1.2156720284163232 -6.807391560700396 0 0 0
962 177 2 0.5564 12.041089811359354 -6.60311906282104 -6.682165602952301 -1 0 0
217 0 5 0 11.404902177076147 -3.88580300161069 -13.10359491794393 -1 0 0
1250 273 2 0.5564 7.0482564819461535 -0.2374838316946605 -3.485627230687239 2 -1 0
518 29 2 0.5564 9.348618699637685 -11.344972961988361 -7.241793246174789 -1 0 0
25 0 5 0 11.25170874247734 -11.997001565738131 -13.082731914800872 -1 0 0
41 0 5 0 3.3949352712990906 -12.041105825876485 -13.078388472874822 0 0 0
608 59 2 0.5564 4.690183384251701 -1.4119437515180324 -2.256626916767295 2 -1 0
1283 284 2 0.5564 11.786851126230932 -2.261901307235252 -4.893334101035021 0 0 0
298 0 5 0 5.38097804241126 -1.8529732320524432 -8.909254952923982 0 0 0
29 0 5 0 -8.82851469860421 -12.03277929534983 -13.155367071749463 0 0 0
607 59 1 -1.1128 4.074656998806241 -0.7164812757358293 -2.4883587291164075 2 -1 0
108 0 5 0 9.462408446731262 -5.948826299448861 -9.073310345002374 0 0 0
1294 288 1 -1.1128 11.841357489721585 -3.0473913771764973 -0.9195150492820551 1 0 0
720 96 2 0.5564 9.59851620467786 -11.107775418362756 -0.5348351679968621 2 0 0
1202 257 2 0.5564 -11.883659677242232 -7.046787369901236 -0.9049342885582571 2 1 0
1056 208 2 0.5564 3.436191111438584 -9.516398066844292 -0.056654157072711105 2 0 0
234 0 5 0 5.287720604675779 -1.9160485528905642 -13.088274125073177 0 0 0
39 0 5 0 1.2800272096395928 -11.968809992686088 -11.045889443848626 0 0 0
871 147 1 -1.1128 -0.524704406558203 -0.13296441214055102 -1.011404247193714 2 -1 0
467 12 2 0.5564 4.475350620160284 -8.807308499039852 -6.692299545005989 0 0 0
1282 284 1 -1.1128 11.867398522318727 -2.555922977025037 -3.9859776783468237 0 0 0
862 144 1 -1.1128 -2.348302096620204 -2.3759353818514843 -0.5000810617613173 3 1 0
238 0 5 0 9.286692317015959 -1.8845903407603724 -13.202119014473292 0 0 0
1315 295 1 -1.1128 10.525619201575182 -0.44148057425354725 -2.4859493102758305 2 0 0
792 120 2 0.5564 9.488346910930815 -4.5828596181182375 -3.905387567080932 1 -1 0
289 0 5 0 11.342682764953206 -3.9251020122962497 -9.07965303586031 -1 0 0
597 55 2 0.5564 10.250588804294898 -8.033756502224309 -1.4842932803486426 1 0 0
982 184 1 -1.1128 11.712691086759584 -1.9648640085907485 -6.701823422593357 -1 0 0
1036 202 1 -1.1128 5.7272939281140225 -11.266822938745428 -1.1364268851535921 1 0 0
744 104 2 0.5564 7.165134471311779 -6.099781017253418 -2.812684286438386 1 0 0
1230 266 2 0.5564 10.296434073222622 -9.35321127987645 -3.110947438083738 3 0 0
220 0 5 0 11.311846351450123 -1.919539244586837 -11.063563552281195 -1 0 0
1077 215 2 0.5564 5.501460077388746 -3.7310824397058884 -0.6245474329913523 2 -1 0
491 20 2 0.5564 4.042422893897231 -2.5163166687977587 -6.287861209442934 0 0 0
892 154 1 -1.1128 1.8155387234638138 -0.8130284003615966 -4.0848921135681096 3 0 0
864 144 2 0.5564 -1.7939342915192396 -1.6254075595201614 -0.7136849447907698 3 1 0
494 21 2 0.5564 9.230886472715127 -3.8965063338554984 -5.970634641690806 0 0 0
1284 284 2 0.5564 11.313911892428877 -1.9538666768537307 -3.488576745841547 0 0 0
1017 195 2 0.5564 4.642352321110311 -0.5813160996169642 -6.661306405438707 0 0 0
475 15 1 -1.1128 7.284162921005784 -10.11862268413935 -6.378079974395157 -1 0 0
596 55 2 0.5564 11.454596644499032 -8.736805719548395 -0.894392523640851 1 0 0
1016 195 2 0.5564 6.153669103030982 -0.5446240613535736 -6.5808687634571745 0 0 0
1120 230 1 -1.1128 10.236996020738752 -6.650740990451368 -4.290957211289645 1 0 0
1477 0 4 -1.1 5.336690491574317 -3.74042991837243 -5.071520642920751 0 0 0
592 54 1 -1.1128 8.485879699082298 -8.228034201580178 -0.9299206118771602 2 -1 0
593 54 2 0.5564 8.113113348205113 -8.767918748816715 -1.6269118766409456 2 -1 0
70 0 5 0 9.22627029403753 -5.950051884676535 -13.067243012661006 0 0 0
69 0 5 0 7.2504582639484845 -8.000783630328629 -13.16537074499208 0 0 0
237 0 5 0 7.281591680524421 -3.915820830890589 -13.049959112903098 0 0 0
1038 202 2 0.5564 6.25237798150342 -10.895667243919435 -1.8454902093233123 1 0 0
790 120 1 -1.1128 9.046959983002244 -3.828468999818276 -4.295659813122728 1 -1 0
1229 266 2 0.5564 9.090076464226474 -9.752770380426638 -3.9337163529722963 3 0 0
299 0 5 0 7.327061380612885 -3.8650855000244233 -9.113247514948561 0 0 0
72 0 5 0 7.18448596195243 -6.0128800936940445 -11.11626800177584 0 0 0
983 184 2 0.5564 10.861008811759094 -1.6471758683487074 -7.001705605199436 -1 0 0
66 0 5 0 5.2761472034687245 -5.970091639206173 -13.135166375537048 0 0 0
1121 230 2 0.5564 9.590933420921345 -7.283591641181119 -4.604534454517362 1 0 0
433 1 1 -1.1128 9.029830461696758 -8.048798621935628 -6.596270398960975 -1 0 0
466 12 1 -1.1128 5.287010706492268 -8.324661271933529 -6.535843242354134 0 0 0
300 0 5 0 9.429432579893717 -1.9098116860153753 -9.064376986730945 0 0 0
240 0 5 0 7.4291260046007475 -1.9680758183348894 -11.032793906197067 0 0 0
94 0 5 0 5.276768796404869 -9.974084346024634 -9.117209353815591 0 0 0
791 120 2 0.5564 9.673167656223937 -3.1103101521572745 -4.204275196078855 1 -1 0
52 0 5 0 11.350895754604286 -5.983194344224619 -11.155623404349402 -1 0 0
961 177 1 -1.1128 11.62444298252781 -5.769469258415047 -6.4638296713304655 -1 0 0
1251 273 2 0.5564 8.36004161837932 -0.6075305554272943 -2.82670521651765 2 -1 0
48 0 5 0 7.282746969039385 -10.016415815439052 -10.971233453336072 0 0 0
470 13 2 0.5564 8.014027415862255 -5.177660566951121 -6.851224595837762 0 0 0
46 0 5 0 9.287801134075622 -9.988398304557057 -13.051672163642282 0 0 0
743 104 2 0.5564 8.229983130745703 -5.812143194242107 -1.7757376526536814 1 0 0
574 48 1 -1.1128 10.121443942764367 -5.381987922834458 -1.3907534366449852 2 -1 0
1271 280 2 0.5564 5.25491114581055 -6.890365622710686 -2.8459782053537226 2 0 0
914 161 2 0.5564 7.798328827624883 -2.568182863243827 -7.185097146946462 0 0 0
742 104 1 -1.1128 7.52745651078515 -5.395644413077909 -2.274965617791311 1 0 0
235 0 5 0 5.275915866513366 -3.8760436217019167 -11.024218072345166 0 0 0
469 13 1 -1.1128 7.409289328124272 -5.890279183529165 -6.644572319174542 0 0 0
493 21 1 -1.1128 9.49500745344896 -4.090111879222574 -6.870070397560982 0 0 0
1228 266 1 -1.1128 10.039833932656627 -9.645570827954174 -3.9855433672692264 3 0 0
42 0 5 0 5.335803205395219 -10.108033364250764 -13.02868140402852 0 0 0
435 1 2 0.5564 9.95874077905998 -8.266227638771086 -6.518190021078881 -1 0 0
476 15 2 0.5564 7.370356689812977 -10.22493792878058 -5.4307137692523435 -1 0 0
106 0 5 0 5.320368536715338 -5.924525891142728 -9.0321112135142 0 0 0
464 11 2 0.5564 4.357437437713325 -11.375220728493025 -6.51532097271362 0 0 0
107 0 5 0 7.291200255528552 -7.967792380228247 -9.059996306718297 0 0 0
434 1 2 0.5564 8.578202272245214 -8.887264004370062 -6.500175815031004 -1 0 0
96 0 5 0 9.33673802129932 -9.978620427060669 -9.026691240595243 0 0 0
459 9 2 0.5564 10.983109706349047 -10.328870459077972 -5.873413043363081 -1 0 0
67 0 5 0 5.271626031343599 -8.044110930204104 -11.10780948247909 0 0 0
28 0 5 0 11.368337805040971 -9.92118846325145 -11.107953797979947 -1 0 0
1270 280 1 -1.1128 5.829566994816523 -6.98641788044148 -3.6054307787868076 2 0 0
777 115 2 0.5564 5.073217973477221 -9.833763683910648 -3.5307749893192475 1 0 0
595 55 1 -1.1128 11.152195140590475 -8.286406858102605 -1.6830185146929733 1 0 0
71 0 5 0 9.313546100078158 -8.023462826021326 -11.053780508848222 0 0 0
1468 0 3 1.1 5.348244439858012 -6.1988361552554085 -5.780129320727864 1 0 0
477 15 2 0.5564 6.65516603193757 -10.79137571997413 -6.638833031062094 -1 0 0
471 13 2 0.5564 7.933890314372437 -6.685294712278374 -6.739370699529782 0 0 0
49 0 5 0 11.328119789490845 -7.917021752269905 -13.202264361966138 -1 0 0
468 12 2 0.5564 5.958277648852013 -9.002643159900515 -6.458488346776943 0 0 0
1122 230 2 0.5564 10.637699369686306 -6.302219334015257 -5.087327288912733 1 0 0
913 161 1 -1.1128 7.2785728707892865 -2.012747636099073 -6.604076167511625 0 0 0
915 161 2 0.5564 6.745309248766941 -2.6265359710760534 -6.09898627031711 0 0 0
239 0 5 0 9.388554385147073 -4.026327220356636 -11.06424540894082 0 0 0
1075 215 1 -1.1128 5.904676743173139 -3.023313508824165 -1.1272447552103289 2 -1 0
1249 273 1 -1.1128 7.544053227368713 -0.9860898081231394 -3.1539693770965 2 -1 0
97 0 5 0 11.433375644724611 -7.9457903260867075 -8.954503528093134 -1 0 0
1487 0 4 -1.1 7.161350023543352 -9.709199334360884 -3.2382861612021343 1 0 0
87 0 5 0 -8.935757078023055 -12.052442038813957 -9.171944492379042 0 0 0
33 0 5 0 -4.835452389530543 -11.979043311578524 -13.087590793095496 0 0 0
541 37 1 -1.1128 -10.84664088981324 -11.940931405662251 -6.779703575069419 0 0 0
894 154 2 0.5564 1.6686374172243685 -1.7584015682687235 -4.054569213338015 3 0 0
1179 249 2 0.5564 -5.791685358109218 -9.819216165259743 -0.856663565931705 2 0 0
1245 271 2 0.5564 8.436697916910527 -11.348146618736795 -2.501561532535752 2 0 0
1162 244 1 -1.1128 -12.054087764099718 -12.102823445550536 -3.915810277450046 3 0 0
1177 249 1 -1.1128 -4.893927009597583 -10.011471816961597 -0.5859454372021634 2 0 0
893 154 2 0.5564 2.768028108864358 -0.7181670380029389 -4.088412571906884 3 0 0
463 11 1 -1.1128 5.1700071165520045 -11.867714562500954 -6.631082797861031 0 0 0
1243 271 1 -1.1128 8.876415756932925 -12.115002636593301 -2.134402993879207 2 0 0
896 155 2 0.5564 -10.868638270422734 -0.06077904698106355 -5.818769910852509 0 0 0
773 114 2 0.5564 -5.333325820290322 -0.23984340813730531 -0.8532455562100659 2 0 0