LAMMPS data file via write_data, version 2 Aug 2023, timestep = 0, units = real

1491 atoms
5 atom types
686 bonds
1 bond types
343 angles
1 angle types

-12.120000000000001 12.120000000000001 xlo xhi
-12.120000000000001 12.120000000000001 ylo yhi
-28.28 28.28 zlo zhi

Masses

1 15.9994
2 1.008
3 28.99
4 35.453
5 26.9815

Atoms # full

1 0 5 0 -12.120000000000001 -12.120000000000001 -20.2 0 0 0
2 0 5 0 -10.1 -10.1 -20.2 0 0 0
3 0 5 0 -10.1 -12.120000000000001 -18.18 0 0 0
4 0 5 0 -12.120000000000001 -10.1 -18.18 0 0 0
5 0 5 0 -8.08 -12.120000000000001 -20.2 0 0 0
6 0 5 0 -6.0600000000000005 -10.1 -20.2 0 0 0
7 0 5 0 -6.0600000000000005 -12.120000000000001 -18.18 0 0 0
8 0 5 0 -8.08 -10.1 -18.18 0 0 0
25 0 5 0 -12.120000000000001 -8.08 -20.2 0 0 0
26 0 5 0 -10.1 -6.0600000000000005 -20.2 0 0 0
27 0 5 0 -10.1 -8.08 -18.18 0 0 0
28 0 5 0 -12.120000000000001 -6.0600000000000005 -18.18 0 0 0
29 0 5 0 -8.08 -8.08 -20.2 0 0 0
30 0 5 0 -6.0600000000000005 -6.0600000000000005 -20.2 0 0 0
31 0 5 0 -6.0600000000000005 -8.08 -18.18 0 0 0
32 0 5 0 -8.08 -6.0600000000000005 -18.18 0 0 0
49 0 5 0 -12.120000000000001 -4.04 -20.2 0 0 0
50 0 5 0 -10.1 -2.02 -20.2 0 0 0
51 0 5 0 -10.1 -4.04 -18.18 0 0 0
52 0 5 0 -12.120000000000001 -2.02 -18.18 0 0 0
53 0 5 0 -8.08 -4.04 -20.2 0 0 0
54 0 5 0 -6.0600000000000005 -2.02 -20.2 0 0 0
55 0 5 0 -6.0600000000000005 -4.04 -18.18 0 0 0
56 0 5 0 -8.08 -2.02 -18.18 0 0 0
73 0 5 0 -12.120000000000001 -12.120000000000001 -16.16 0 0 0
74 0 5 0 -10.1 -10.1 -16.16 0 0 0
75 0 5 0 -8.08 -12.120000000000001 -16.16 0 0 0
76 0 5 0 -6.0600000000000005 -10.1 -16.16 0 0 0
85 0 5 0 -12.120000000000001 -8.08 -16.16 0 0 0
86 0 5 0 -10.1 -6.0600000000000005 -16.16 0 0 0
87 0 5 0 -8.08 -8.08 -16.16 0 0 0
88 0 5 0 -6.0600000000000005 -6.0600000000000005 -16.16 0 0 0
97 0 5 0 -12.120000000000001 -4.04 -16.16 0 0 0
98 0 5 0 -10.1 -2.02 -16.16 0 0 0
99 0 5 0 -8.08 -4.04 -16.16 0 0 0
100 0 5 0 -6.0600000000000005 -2.02 -16.16 0 0 0
9 0 5 0 -4.04 -12.120000000000001 -20.2 0 0 0
10 0 5 0 -2.02 -10.1 -20.2 0 0 0
11 0 5 0 -2.02 -12.120000000000001 -18.18 0 0 0
12 0 5 0 -4.04 -10.1 -18.18 0 0 0
13 0 5 0 0 -12.120000000000001 -20.2 0 0 0
14 0 5 0 2.02 -10.1 -20.2 0 0 0
15 0 5 0 2.02 -12.120000000000001 -18.18 0 0 0
16 0 5 0 0 -10.1 -18.18 0 0 0
17 0 5 0 4.04 -12.120000000000001 -20.2 0 0 0
20 0 5 0 4.04 -10.1 -18.18 0 0 0
33 0 5 0 -4.04 -8.08 -20.2 0 0 0
34 0 5 0 -2.02 -6.0600000000000005 -20.2 0 0 0
35 0 5 0 -2.02 -8.08 -18.18 0 0 0
36 0 5 0 -4.04 -6.0600000000000005 -18.18 0 0 0
37 0 5 0 0 -8.08 -20.2 0 0 0
38 0 5 0 2.02 -6.0600000000000005 -20.2 0 0 0
39 0 5 0 2.02 -8.08 -18.18 0 0 0
40 0 5 0 0 -6.0600000000000005 -18.18 0 0 0
41 0 5 0 4.04 -8.08 -20.2 0 0 0
44 0 5 0 4.04 -6.0600000000000005 -18.18 0 0 0
57 0 5 0 -4.04 -4.04 -20.2 0 0 0
58 0 5 0 -2.02 -2.02 -20.2 0 0 0
59 0 5 0 -2.02 -4.04 -18.18 0 0 0
60 0 5 0 -4.04 -2.02 -18.18 0 0 0
61 0 5 0 0 -4.04 -20.2 0 0 0
62 0 5 0 2.02 -2.02 -20.2 0 0 0
63 0 5 0 2.02 -4.04 -18.18 0 0 0
64 0 5 0 0 -2.02 -18.18 0 0 0
65 0 5 0 4.04 -4.04 -20.2 0 0 0
68 0 5 0 4.04 -2.02 -18.18 0 0 0
77 0 5 0 -4.04 -12.120000000000001 -16.16 0 0 0
78 0 5 0 -2.02 -10.1 -16.16 0 0 0
79 0 5 0 0 -12.120000000000001 -16.16 0 0 0
80 0 5 0 2.02 -10.1 -16.16 0 0 0
81 0 5 0 4.04 -12.120000000000001 -16.16 0 0 0
89 0 5 0 -4.04 -8.08 -16.16 0 0 0
90 0 5 0 -2.02 -6.0600000000000005 -16.16 0 0 0
91 0 5 0 0 -8.08 -16.16 0 0 0
92 0 5 0 2.02 -6.0600000000000005 -16.16 0 0 0
93 0 5 0 4.04 -8.08 -16.16 0 0 0
101 0 5 0 -4.04 -4.04 -16.16 0 0 0
102 0 5 0 -2.02 -2.02 -16.16 0 0 0
103 0 5 0 0 -4.04 -16.16 0 0 0
104 0 5 0 2.02 -2.02 -16.16 0 0 0
105 0 5 0 4.04 -4.04 -16.16 0 0 0
18 0 5 0 6.0600000000000005 -10.1 -20.2 0 0 0
19 0 5 0 6.0600000000000005 -12.120000000000001 -18.18 0 0 0
21 0 5 0 8.08 -12.120000000000001 -20.2 0 0 0
22 0 5 0 10.1 -10.1 -20.2 0 0 0
23 0 5 0 10.1 -12.120000000000001 -18.18 0 0 0
24 0 5 0 8.08 -10.1 -18.18 0 0 0
42 0 5 0 6.0600000000000005 -6.0600000000000005 -20.2 0 0 0
43 0 5 0 6.0600000000000005 -8.08 -18.18 0 0 0
45 0 5 0 8.08 -8.08 -20.2 0 0 0
46 0 5 0 10.1 -6.0600000000000005 -20.2 0 0 0
47 0 5 0 10.1 -8.08 -18.18 0 0 0
48 0 5 0 8.08 -6.0600000000000005 -18.18 0 0 0
66 0 5 0 6.0600000000000005 -2.02 -20.2 0 0 0
67 0 5 0 6.0600000000000005 -4.04 -18.18 0 0 0
69 0 5 0 8.08 -4.04 -20.2 0 0 0
70 0 5 0 10.1 -2.02 -20.2 0 0 0
71 0 5 0 10.1 -4.04 -18.18 0 0 0
72 0 5 0 8.08 -2.02 -18.18 0 0 0
82 0 5 0 6.0600000000000005 -10.1 -16.16 0 0 0
83 0 5 0 8.08 -12.120000000000001 -16.16 0 0 0
84 0 5 0 10.1 -10.1 -16.16 0 0 0
94 0 5 0 6.0600000000000005 -6.0600000000000005 -16.16 0 0 0
95 0 5 0 8.08 -8.08 -16.16 0 0 0
96 0 5 0 10.1 -6.0600000000000005 -16.16 0 0 0
106 0 5 0 6.0600000000000005 -2.02 -16.16 0 0 0
107 0 5 0 8.08 -4.04 -16.16 0 0 0
108 0 5 0 10.1 -2.02 -16.16 0 0 0
433 1 1 -1.1128 -9.62684180568726 -9.266504720309394 -9.087718406842374 0 0 0
434 1 2 0.5564 -8.80759797717469 -9.69752669166625 -8.839544738513688 0 0 0
435 1 2 0.5564 -9.465560217138052 -8.935968588024359 -9.97273685464394 0 0 0
436 2 1 -1.1128 -5.969871556310836 -9.228640429269626 -9.608155294568146 0 0 0
437 2 2 0.5564 -5.882451989144166 -8.883835236840783 -8.718212735438344 0 0 0
438 2 2 0.5564 -6.747676454544998 -9.787524333889593 -9.573631969993512 0 0 0
454 8 1 -1.1128 -9.338887363028375 -6.56727000577749 -9.171114429229252 0 0 0
455 8 2 0.5564 -9.603971640059655 -6.212549154869096 -10.021075607167178 0 0 0
456 8 2 0.5564 -8.957140996911972 -5.820180839353414 -8.707809963603571 0 0 0
457 9 1 -1.1128 -6.307674282999612 -6.435308019872557 -9.006661698606923 0 0 0
458 9 2 0.5564 -5.4176815820295525 -6.218990144170269 -9.288885242755297 0 0 0
459 9 2 0.5564 -6.874644134970836 -5.945701835957174 -9.604453058637782 0 0 0
475 15 1 -1.1128 -9.663878724043348 -3.2384298197942476 -9.262046954268245 0 0 0
476 15 2 0.5564 -8.855337202291924 -3.738749170320839 -9.382345396039277 0 0 0
477 15 2 0.5564 -9.38078407366473 -2.3228210098849136 -9.25560764969248 0 0 0
478 16 1 -1.1128 -6.224414147510166 -3.4195177277093483 -9.524328655282392 0 0 0
479 16 2 0.5564 -5.799235344343099 -2.5865490321131808 -9.733891766287739 0 0 0
480 16 2 0.5564 -6.576350508146735 -3.2939332401774712 -8.641779578429869 0 0 0
496 22 1 -1.1128 -9.290848565912036 -9.191045867135553 -6.575574523478218 0 0 0
497 22 2 0.5564 -9.482027352495656 -10.060862641033431 -6.221455883180501 0 0 0
498 22 2 0.5564 -9.12712408159231 -8.648091491831018 -5.802969593341282 0 0 0
499 23 1 -1.1128 -6.215331629839894 -9.621495598479346 -5.977701786366016 0 0 0
500 23 2 0.5564 -6.421093371608904 -9.542713864768203 -6.910432242638164 0 0 0
501 23 2 0.5564 -5.963574998551203 -8.735790536752456 -5.711865970995821 0 0 0
517 29 1 -1.1128 -9.367338303146312 -6.531123649293415 -6.397062569525486 0 0 0
518 29 2 0.5564 -8.707873804387022 -6.375465295783761 -5.719266426235469 0 0 0
519 29 2 0.5564 -9.824787892466668 -5.693411054922825 -6.483671004239045 0 0 0
520 30 1 -1.1128 -6.523740888876661 -6.419405270807471 -6.208008652274265 0 0 0
521 30 2 0.5564 -5.747242802356217 -6.498768364582326 -6.764140633890657 0 0 0
522 30 2 0.5564 -6.329016308767122 -5.681826364610204 -5.627850713835079 0 0 0
538 36 1 -1.1128 -9.045411137558373 -2.816913308355339 -6.110236919424752 0 0 0
539 36 2 0.5564 -9.49427469558688 -3.4143030839661948 -5.510089002432948 0 0 0
540 36 2 0.5564 -9.36031416685475 -3.0687836076784665 -6.979674078142301 0 0 0
541 37 1 -1.1128 -5.881657857705574 -3.301603084086475 -6.094997850373353 0 0 0
542 37 2 0.5564 -6.1174386286674185 -2.4063429584727323 -5.847112200262857 0 0 0
543 37 2 0.5564 -6.600903513627008 -3.592053957440793 -6.65788994936379 0 0 0
559 43 1 -1.1128 -9.63842773352651 -9.360610373872332 -3.286558372256959 0 0 0
560 43 2 0.5564 -8.776035854185228 -9.717195581707541 -3.504865028131972 0 0 0
561 43 2 0.5564 -9.485536412288264 -8.82219404442013 -2.5085765996110694 0 0 0
562 44 1 -1.1128 -6.256135358171954 -9.166134802417519 -2.7367646700290433 0 0 0
563 44 2 0.5564 -5.443759991810892 -9.160307880277317 -3.245235781409132 0 0 0
564 44 2 0.5564 -6.900104650017155 -9.573557317305166 -3.3179995485618243 0 0 0
580 50 1 -1.1128 -9.517224539693405 -6.497272419996336 -3.2321120061330944 0 0 0
581 50 2 0.5564 -8.994755076043493 -6.463735638188156 -2.4293470942072406 0 0 0
582 50 2 0.5564 -9.388020384263104 -5.638991941815508 -3.6385408996596653 0 0 0
583 51 1 -1.1128 -6.258837572308781 -5.935110365062637 -2.818250828062336 0 0 0
584 51 2 0.5564 -5.421470470615849 -6.2615115238610555 -3.151130957444414 0 0 0
585 51 2 0.5564 -6.919691957075371 -6.403378111076309 -3.3306182144932497 0 0 0
601 57 1 -1.1128 -9.505277385019419 -3.0860690716476933 -3.432683181021873 0 0 0
602 57 2 0.5564 -9.111146382526451 -2.3544036557056383 -2.9553394558214396 0 0 0
603 57 2 0.5564 -9.283576232454132 -3.8595272726466687 -2.911977363156687 0 0 0
604 58 1 -1.1128 -6.17654479369616 -3.4045183245983934 -3.3443960265246386 0 0 0
605 58 2 0.5564 -5.65298513769106 -3.2412891560488046 -2.5584112396881307 0 0 0
606 58 2 0.5564 -6.770470068612781 -2.654192519352802 -3.397192733787231 0 0 0
623 64 2 0.5564 -9.359452434110695 -9.503542583441627 -0.7533538977825908 0 0 0
626 65 2 0.5564 -5.481727376818435 -9.53128938042501 -0.20759559675120554 0 0 0
643 71 1 -1.1128 -9.520871064780662 -6.5228227064531765 -0.0035280930972767044 0 0 0
644 71 2 0.5564 -8.564382546760891 -6.466040251876842 -0.024409370563636148 0 0 0
646 72 1 -1.1128 -6.301869142974945 -6.573423872062634 -0.056464714497641934 0 0 0
648 72 2 0.5564 -6.784738721492422 -5.787661763844046 -0.3171147057315448 0 0 0
664 78 1 -1.1128 -9.575317721696635 -3.335550634889281 -0.147400898989903 0 0 0
665 78 2 0.5564 -8.647134661309384 -3.2984523191532173 -0.3832620475067866 0 0 0
668 79 2 0.5564 -5.567019950382264 -3.022202472393162 -0.4536409064273101 0 0 0
874 148 1 -1.1128 -9.553074647999331 -0.29150429249750415 -9.36316204948816 0 0 0
875 148 2 0.5564 -8.59939362105654 -0.3485592394478365 -9.287216069490283 0 0 0
877 149 1 -1.1128 -5.9826370931407515 -0.21589596154888946 -9.056785537007814 0 0 0
879 149 2 0.5564 -6.505852614369042 -0.5177945130451258 -9.80084623443127 0 0 0
959 176 2 0.5564 -9.022942781460438 -0.7275177521570362 -6.119604176405148 0 0 0
961 177 1 -1.1128 -6.584311391047901 -0.04479698142285518 -6.1424764425106755 0 0 0
963 177 2 0.5564 -5.890680791689725 -0.6909627044682786 -6.001515495808395 0 0 0
1042 204 1 -1.1128 -9.31346489279352 -0.37332467470075875 -2.983989834834909 0 0 0
1047 205 2 0.5564 -5.522243358924014 -0.24804245408086945 -2.797304102355291 0 0 0
1131 233 2 0.5564 -6.922522527039753 -0.2779880572534321 -0.11483800740413813 0 0 0
1464 0 3 1.1 -7.345628760953261 -3.6625853414566176 -11.711833861391915 0 0 0
1478 0 4 -1.1 -5.219697637064242 -2.8981861387091623 -11.654433284892903 0 0 0
1479 0 4 -1.1 -10.73086105397477 -7.981734153936494 -4.845925210642594 0 0 0
439 3 1 -1.1128 -3.1933233650043724 -9.667646819664366 -9.20440951911964 0 0 0
440 3 2 0.5564 -2.317966514626365 -9.298329704817814 -9.330448454285381 0 0 0
441 3 2 0.5564 -3.788710120369263 -8.934023475517822 -9.365142026594981 0 0 0
442 4 1 -1.1128 -0.3507723872186114 -9.365191774651803 -9.139626250955136 0 0 0
443 4 2 0.5564 0.375073917684385 -9.983779058948198 -9.2346392677764 0 0 0
444 4 2 0.5564 -0.024301530465773657 -8.551029166400001 -9.525734481268465 0 0 0
445 5 1 -1.1128 2.834109611855909 -9.583824649890145 -9.258085275769474 0 0 0
446 5 2 0.5564 3.7885522592945646 -9.670467905871226 -9.26600606760405 0 0 0
447 5 2 0.5564 2.677338128849527 -8.645707444238631 -9.375908656626478 0 0 0
460 10 1 -1.1128 -2.934309594771926 -6.426130677860315 -9.572805023131524 0 0 0
461 10 2 0.5564 -2.6248038914639245 -5.580649172680095 -9.244327011663467 0 0 0
462 10 2 0.5564 -3.7408865137641496 -6.59322014945959 -9.082867965205011 0 0 0
463 11 1 -1.1128 -0.35533915984091663 -6.115796740257984 -9.159804183256526 0 0 0
464 11 2 0.5564 0.4583485522944617 -5.626775110859063 -9.02827200810566 0 0 0
465 11 2 0.5564 -0.10300939245354512 -6.857428148882954 -9.711923808637817 0 0 0
466 12 1 -1.1128 2.8279423089887756 -6.347970576573319 -9.061043318297646 0 0 0
467 12 2 0.5564 3.621097658266605 -6.777752037989373 -9.384652723808433 0 0 0
468 12 2 0.5564 2.85096003274462 -5.474277385437309 -9.454303957893924 0 0 0
481 17 1 -1.1128 -3.1671614831894663 -3.216042626168969 -9.667470296197667 0 0 0
482 17 2 0.5564 -3.39921553590446 -2.377665840185453 -9.265219328091314 0 0 0
483 17 2 0.5564 -2.733622980906074 -3.706291533645578 -8.967310375711023 0 0 0
484 18 1 -1.1128 -0.23074654473759543 -3.4152204607018266 -9.279923452822034 0 0 0
485 18 2 0.5564 0.3252972274265481 -3.0501894453900036 -8.58992472724503 0 0 0
486 18 2 0.5564 -0.09455068268895273 -2.83459009390817 -10.030151819932938 0 0 0
487 19 1 -1.1128 2.895220815175563 -3.2480864588673604 -9.001425284622485 0 0 0
488 19 2 0.5564 3.695385452118543 -3.5989298188063605 -9.395349199322547 0 0 0
489 19 2 0.5564 2.709393732705894 -2.4529837223262794 -9.50322551605497 0 0 0
502 24 1 -1.1128 -3.2963002224321842 -9.637235264967611 -6.172621664855199 0 0 0
503 24 2 0.5564 -2.3935048832099834 -9.460340230048322 -5.903922423881996 0 0 0
504 24 2 0.5564 -3.6101948943578326 -8.80242450498407 -6.523455911262806 0 0 0
505 25 1 -1.1128 -0.30008452035690714 -9.304662198455745 -5.949124494922832 0 0 0
506 25 2 0.5564 0.6141040031388053 -9.08243394485588 -5.76635549642833 0 0 0
507 25 2 0.5564 -0.3140194827818983 -9.512903856688375 -6.884520008648838 0 0 0
508 26 1 -1.1128 3.296689633858405 -9.306093746967493 -6.538063645901985 0 0 0
509 26 2 0.5564 2.3622080650390602 -9.467931256328772 -6.399921045301471 0 0 0
510 26 2 0.5564 3.641102301102535 -9.12597499670374 -5.662015308796544 0 0 0
523 31 1 -1.1128 -3.436002547116867 -6.3955966624785985 -6.156927869123865 0 0 0
524 31 2 0.5564 -2.6846793620957357 -6.632971525179777 -6.702544223540867 0 0 0
525 31 2 0.5564 -3.1793180907873975 -5.571431812341625 -5.740527907335268 0 0 0
526 32 1 -1.1128 -0.0860273037565693 -6.527108157578362 -6.3964956252797105 0 0 0
527 32 2 0.5564 0.7768439280861656 -6.131131759332783 -6.265398374009289 0 0 0
528 32 2 0.5564 -0.6908166243295961 -5.941760083088854 -5.938106000711001 0 0 0
529 33 1 -1.1128 2.8643404760208377 -6.486486090957258 -6.3241019054887735 0 0 0
530 33 2 0.5564 3.7801019647423857 -6.557194562742303 -6.050401763376428 0 0 0
531 33 2 0.5564 2.655557559236777 -5.556319346300439 -6.225496331134798 0 0 0
544 38 1 -1.1128 -3.3867726011954264 -3.3598621849456274 -6.143043046615067 0 0 0
545 38 2 0.5564 -2.471830734610296 -3.5355936465636293 -6.36783271311982 0 0 0
546 38 2 0.5564 -3.4413966641942775 -2.4045441684907436 -6.089124240265114 0 0 0
547 39 1 -1.1128 -0.2655175141448939 -2.81279132501188 -6.195245928704307 0 0 0
548 39 2 0.5564 -0.1511415734203646 -3.5167823628864916 -5.555054298974891 0 0 0
549 39 2 0.5564 0.4166590875652584 -2.9704263121016283 -6.849699772320802 0 0 0
550 40 1 -1.1128 3.122252261343478 -2.8157448782915373 -6.467796260518344 0 0 0
551 40 2 0.5564 2.9174631743250505 -3.7411434918204383 -6.610026341432852 0 0 0
552 40 2 0.5564 3.2602845643314713 -2.7431116298880247 -5.522177398048805 0 0 0
565 45 1 -1.1128 -3.1719508056899617 -9.677544109572798 -3.0272366755332807 0 0 0
566 45 2 0.5564 -2.4595074034747335 -9.306091051023444 -3.549709243171354 0 0 0
567 45 2 0.5564 -3.668541790835305 -8.91636483940376 -2.7230540812953654 0 0 0
568 46 1 -1.1128 -0.2715703253080036 -9.577214550035748 -3.1491184910251007 0 0 0
569 46 2 0.5564 0.6718686480377004 -9.694912364255647 -3.0282851839435576 0 0 0
570 46 2 0.5564 -0.4002983227296968 -8.627873085708607 -3.122596325031342 0 0 0
571 47 1 -1.1128 2.850257553274923 -9.593032857658338 -3.0309244678894127 0 0 0
572 47 2 0.5564 3.7324922090578156 -9.648955511610218 -3.401147682870077 0 0 0
573 47 2 0.5564 2.717250237667262 -8.658011630731446 -2.8679278492405107 0 0 0
586 52 1 -1.1128 -2.88766903250229 -6.442843743831754 -3.321254267356053 0 0 0
587 52 2 0.5564 -3.681609242556858 -5.966445817583271 -3.568710361895373 0 0 0
588 52 2 0.5564 -2.730721724940852 -6.190710438584976 -2.4100353707485747 0 0 0
589 53 1 -1.1128 -0.30074364535083 -6.404362313942165 -2.955776981999063 0 0 0
590 53 2 0.5564 0.5901775752941906 -6.713284985213476 -3.1271150156605465 0 0 0
591 53 2 0.5564 -0.2894339299433606 -5.48235270084436 -3.2171080023403906 0 0 0
592 54 1 -1.1128 2.7702408869294652 -6.3787304851184174 -2.988980562349337 0 0 0
593 54 2 0.5564 3.5876715611923347 -6.784537643270688 -3.2816547893774937 0 0 0
594 54 2 0.5564 2.9420875518782004 -5.436731871610895 -3.0293646482731695 0 0 0
607 59 1 -1.1128 -3.253418773401673 -3.1974034387535557 -3.4463902778469806 0 0 0
608 59 2 0.5564 -3.621535049245974 -3.3566895375059334 -2.5759599783957436 0 0 0
609 59 2 0.5564 -2.4250461773523533 -2.745907023740511 -3.277649743757276 0 0 0
610 60 1 -1.1128 -0.2629299007757786 -3.385589206812888 -3.1481419435630174 0 0 0
611 60 2 0.5564 0.6750547084686309 -3.4750318062318293 -2.9728836934582215 0 0 0
612 60 2 0.5564 -0.41212480769285226 -2.439378986955283 -3.1789743629787615 0 0 0
613 61 1 -1.1128 3.382570396628382 -3.370325187077821 -3.1094466227097355 0 0 0
614 61 2 0.5564 3.2330046879346495 -2.655918118230343 -3.7305611039156528 0 0 0
615 61 2 0.5564 2.6844249154369693 -3.273756694691836 -2.459992273374612 0 0 0
628 66 1 -1.1128 -3.3279209573280335 -9.60678543059511 -0.08334093403152062 0 0 0
630 66 2 0.5564 -3.5567525034621927 -8.677082863976452 -0.1259179186185891 0 0 0
632 67 2 0.5564 0.6742667809311195 -9.696889108286511 -0.01869797733243342 0 0 0
633 67 2 0.5564 -0.4008710306762422 -8.628817495376666 -0.03633720204023908 0 0 0
635 68 2 0.5564 3.342755880757783 -9.812097047484423 -0.5397522272443631 0 0 0
649 73 1 -1.1128 -3.450112728622543 -6.3545420596916555 -0.08092467820596297 0 0 0
651 73 2 0.5564 -3.0491157747010766 -5.575015116362268 -0.4683039833698387 0 0 0
653 74 2 0.5564 0.7541290546039233 -6.392898929528504 -0.0811519715653927 0 0 0
655 75 1 -1.1128 2.8467016606620943 -6.312747543409723 -0.27593281291599137 0 0 0
670 80 1 -1.1128 -3.428874981369005 -2.9410299854443687 -0.13993125312709398 0 0 0
671 80 2 0.5564 -3.1902409638389986 -3.8689022259854586 -0.11468306684081779 0 0 0
674 81 2 0.5564 0.1669549435185383 -3.0375332064036353 -0.7620565707560765 0 0 0
678 82 2 0.5564 2.881023082625944 -3.7073343526936253 -0.4423776934877827 0 0 0
880 150 1 -1.1128 -3.433555368976147 -0.18940217772316936 -9.223327935981171 0 0 0
881 150 2 0.5564 -2.7360487299630663 -0.4502083302224045 -9.826648082629053 0 0 0
883 151 1 -1.1128 0.020640831295693857 -0.38576891691619936 -9.238621882362482 0 0 0
886 152 1 -1.1128 2.727633671432937 -0.06941822871369034 -9.202350620218358 0 0 0
888 152 2 0.5564 3.491663560036607 -0.04812312393497645 -8.624139252003648 0 0 0
964 178 1 -1.1128 -3.140571342169934 -0.16538524516894867 -5.847845685281386 0 0 0
965 178 2 0.5564 -2.490274650459558 -0.370907076302182 -6.521199640997236 0 0 0
968 179 2 0.5564 0.26951117215340437 -0.6997441278717728 -5.975883614848288 0 0 0
970 180 1 -1.1128 3.33324545174119 -0.2741215997470591 -6.046817486983137 0 0 0
972 180 2 0.5564 2.3834792103949027 -0.3132768591471452 -6.169024241952975 0 0 0
1048 206 1 -1.1128 -3.2485375342360374 -0.35917050153138685 -3.0559077529176606 0 0 0
1049 206 2 0.5564 -2.3249554346848225 -0.103410300333139 -3.0665559861796283 0 0 0
1051 207 1 -1.1128 -0.1421586479889706 -0.3636234543488933 -3.1240806301687942 0 0 0
1052 207 2 0.5564 0.6132292986080808 -0.06128714256526818 -2.617610132792131 0 0 0
1054 208 1 -1.1128 2.968761736182817 -0.36730162474049066 -3.0703856610195794 0 0 0
1055 208 2 0.5564 3.859156207993639 -0.0481165455351909 -2.915954026367109 0 0 0
1132 234 1 -1.1128 -3.04927338130648 -0.2908562283737896 -0.2565939186186925 0 0 0
1136 235 2 0.5564 0.21616060301913625 -0.6662797027175407 -0.34907337616757506 0 0 0
1139 236 2 0.5564 3.0202365851930733 -0.3042211917951936 -0.716654403894269 0 0 0
1463 0 3 1.1 1.618967450474841 -11.534059869374177 -5.6642245717832 0 0 0
1477 0 4 -1.1 0.7325989194086748 -1.129961498402972 -11.34290365875834 0 0 0
448 6 1 -1.1128 6.452139232615445 -9.598518025575306 -9.31799361783289 0 0 0
449 6 2 0.5564 5.80528658043566 -9.336425421080342 -9.974819068799146 0 0 0
450 6 2 0.5564 6.342574186948895 -8.965056553344354 -8.607187313367966 0 0 0
451 7 1 -1.1128 9.044193001712252 -9.461973712779901 -9.05233435745888 0 0 0
452 7 2 0.5564 9.990754599710161 -9.605821247943602 -9.095457295936829 0 0 0
453 7 2 0.5564 8.865052398577589 -8.8322050392765 -9.752208346604293 0 0 0
469 13 1 -1.1128 6.0107123484582425 -5.991052819671996 -9.028850160784149 0 0 0
470 13 2 0.5564 6.2180322117998434 -6.926564202824138 -9.009680229725685 0 0 0
471 13 2 0.5564 6.3712554397419146 -5.682382977503868 -9.861469609490168 0 0 0
472 14 1 -1.1128 9.22320730590511 -6.3886874324290615 -8.96606750760524 0 0 0
473 14 2 0.5564 9.710547640674902 -5.571265664740112 -9.07943245727991 0 0 0
474 14 2 0.5564 8.966245053419991 -6.640046902830827 -9.854500035114853 0 0 0
490 20 1 -1.1128 5.930513276724283 -3.3690378719210012 -9.389479069900933 0 0 0
491 20 2 0.5564 5.936177122677449 -2.770566116716489 -8.640927108396959 0 0 0
492 20 2 0.5564 6.733309600598268 -3.16039601136251 -9.86959382170211 0 0 0
493 21 1 -1.1128 9.291612592091044 -3.326651712303115 -8.981300098527417 0 0 0
494 21 2 0.5564 9.787417465142491 -3.4683076402911883 -9.78916251622258 0 0 0
495 21 2 0.5564 8.820969942766467 -2.5050406474056968 -9.129537385250005 0 0 0
511 27 1 -1.1128 6.048272762036536 -9.656299006867716 -6.255143788998019 0 0 0
512 27 2 0.5564 6.87420815866086 -9.310894195801277 -6.597279430367313 0 0 0
513 27 2 0.5564 5.677519079302605 -8.93280679733101 -5.7475767806346685 0 0 0
514 28 1 -1.1128 9.221474109427067 -9.681337559596008 -6.162233286466931 0 0 0
515 28 2 0.5564 9.926454259526862 -9.274765658696303 -6.668427752422527 0 0 0
516 28 2 0.5564 8.752071631046071 -8.943896781707691 -5.7693389611105435 0 0 0
532 34 1 -1.1128 5.839328291911336 -6.252243263677642 -6.057881968474392 0 0 0
533 34 2 0.5564 6.591588353883558 -6.8409673459436835 -5.980168944330706 0 0 0
534 34 2 0.5564 6.169083354205107 -5.506789390378675 -6.561949087194903 0 0 0
535 35 1 -1.1128 9.508492314974058 -6.287959037542439 -5.880930827544613 0 0 0
536 35 2 0.5564 9.021001425997808 -5.482388239067744 -6.059645353563025 0 0 0
537 35 2 0.5564 9.370506259028136 -6.829652723389818 -6.659423818892363 0 0 0
553 41 1 -1.1128 5.853542048141041 -3.2363951096957884 -6.080107397456018 0 0 0
554 41 2 0.5564 6.718262868448245 -3.4285092311097154 -5.71421038014023 0 0 0
555 41 2 0.5564 6.028195083410714 -2.635095659194497 -6.805682222403752 0 0 0
556 42 1 -1.1128 9.060623166842678 -3.4093664575330807 -6.198550447998722 0 0 0
557 42 2 0.5564 10.01901763540522 -3.409057760607376 -6.201791949954785 0 0 0
558 42 2 0.5564 8.820359197752103 -2.481575781859544 -6.199657602046495 0 0 0
574 48 1 -1.1128 5.948480925194558 -9.598935782998403 -3.1196602937960547 0 0 0
575 48 2 0.5564 6.905796012404244 -9.638149910592583 -3.09640871325323 0 0 0
576 48 2 0.5564 5.745723062401198 -8.662914306409018 -3.0839309929507155 0 0 0
577 49 1 -1.1128 9.17227694316798 -9.516160810727213 -3.399953828379034 0 0 0
578 49 2 0.5564 9.897709771780638 -9.70961763978608 -2.8042590856948935 0 0 0
579 49 2 0.5564 8.830013285051384 -8.674221549486711 -3.095787085926073 0 0 0
595 55 1 -1.1128 6.396193190614711 -6.374564149808683 -2.8100921455738193 0 0 0
596 55 2 0.5564 5.61004296563523 -5.830604344471399 -2.742223788129898 0 0 0
597 55 2 0.5564 6.593763843750059 -6.394831505719918 -3.7476840662962827 0 0 0
598 56 1 -1.1128 9.118502418845155 -6.41346252238862 -2.8270469746083986 0 0 0
599 56 2 0.5564 9.772123649109412 -6.707563358473464 -3.463297354224818 0 0 0
600 56 2 0.5564 9.009373932045435 -5.478974119137916 -3.0096556711667835 0 0 0
616 62 1 -1.1128 6.496207612968585 -2.8478372555958034 -3.1410606241306276 0 0 0
617 62 2 0.5564 6.5199296285925135 -3.722060563533139 -2.7490128798011386 0 0 0
618 62 2 0.5564 5.583862758438902 -2.730102180871058 -3.4099264960682336 0 0 0
619 63 1 -1.1128 8.961751085871525 -3.222093013325011 -3.2539218720264453 0 0 0
620 63 2 0.5564 9.473091875962261 -3.6368605800469993 -2.557481621908101 0 0 0
621 63 2 0.5564 9.465157038166216 -2.44104640662799 -3.488596506065454 0 0 0
639 69 2 0.5564 6.444674918487768 -9.034838354482789 -0.6944979596871461 0 0 0
640 70 1 -1.1128 9.051817549711778 -9.602317646524796 -0.0045261980339881425 0 0 0
642 70 2 0.5564 8.83850463109812 -8.667967343762884 -0.007789475718649266 0 0 0
658 76 1 -1.1128 6.164111667552566 -6.562768499109815 -0.14185209955356723 0 0 0
660 76 2 0.5564 5.489455632215609 -5.88414101923761 -0.08867770679051427 0 0 0
661 77 1 -1.1128 8.995129765562814 -6.326758174673617 -0.20975576227514545 0 0 0
679 83 1 -1.1128 6.047814630765271 -3.4593202752682917 -0.02719425807055971 0 0 0
681 83 2 0.5564 5.611805783412382 -2.6230148070249637 -0.1975262495352066 0 0 0
683 84 2 0.5564 9.81970912626873 -3.674711102803022 -0.11007198957013892 0 0 0
889 153 1 -1.1128 5.987538270469744 -0.3269915884655603 -9.330781310202491 0 0 0
894 154 2 0.5564 9.353174092432894 -0.7806690669486875 -9.284760124560764 0 0 0
973 181 1 -1.1128 5.88745362121359 -0.1918631409343171 -6.063932844674697 0 0 0
974 181 2 0.5564 6.777960031823614 -0.5272485574127246 -6.178149809596975 0 0 0
978 182 2 0.5564 9.11671113052261 -0.22352018170746582 -5.4727119905462756 0 0 0
1057 209 1 -1.1128 6.090965556316385 -0.19864658403914992 -3.4188447886357585 0 0 0
1059 209 2 0.5564 5.86312375140064 -0.38285332698252583 -2.506332034595067 0 0 0
1060 210 1 -1.1128 9.002086587032661 -0.24282108284305856 -3.17277701973203 0 0 0
1061 210 2 0.5564 9.90702178248191 -0.47268662798912375 -2.9564793470863635 0 0 0
1143 237 2 0.5564 6.302632717432718 -0.6840150340937475 -0.3661883237435424 0 0 0
1145 238 2 0.5564 8.814405805744373 -0.6131120206135728 -0.028252419088803965 0 0 0
1462 0 3 1.1 4.199599106088094 -4.217823977404192 -11.207588232256281 0 0 0
622 64 1 -1.1128 -9.563239310083027 -9.014201069204988 0.04511109933752783 0 0 0
624 64 2 0.5564 -8.977308255806282 -9.382256347353387 0.7082427984450628 0 0 0
625 65 1 -1.1128 -6.4072187992736716 -9.631136173343513 0.02049825434012137 0 0 0
627 65 2 0.5564 -6.711053823907894 -8.737574446231477 0.18709734241108414 0 0 0
645 71 2 0.5564 -9.814746388458449 -5.611137041669983 0.027937463660912848 0 0 0
647 72 2 0.5564 -5.513392135532634 -6.238914364093321 0.37357942022918683 0 0 0
858 142 2 0.5564 -6.640219582493384 -2.4559343378450675 9.237629558104189 0 0 0
857 142 2 0.5564 -5.501724722597478 -3.4506535310730073 9.344271984532684 0 0 0
856 142 1 -1.1128 -6.458055694909138 -3.3934121310819254 9.318098457363128 0 0 0
855 141 2 0.5564 -9.313105019575191 -3.224196531783766 10.072597831963577 0 0 0
854 141 2 0.5564 -9.42091971468063 -3.3413237108218925 8.565392921558262 0 0 0
853 141 1 -1.1128 -9.16597526574418 -2.734479757394342 9.262009246478163 0 0 0
666 78 2 0.5564 -9.677547616993985 -2.6659970459575013 0.5306629464966895 0 0 0
667 79 1 -1.1128 -6.1503765875443435 -3.4443323882906305 0.17883986638981342 0 0 0
669 79 2 0.5564 -6.8826034620733925 -2.833465139316208 0.2748010400374966 0 0 0
685 85 1 -1.1128 -9.539352308792363 -9.609213993247174 3.0896003290483605 0 0 0
686 85 2 0.5564 -8.581044745766011 -9.609194338439353 3.1029110112315523 0 0 0
687 85 2 0.5564 -9.779602945441628 -8.681591668313475 3.1074886597200875 0 0 0
688 86 1 -1.1128 -5.995306138921891 -9.482572749418708 2.8211118702658187 0 0 0
689 86 2 0.5564 -5.662002104389163 -8.911431244669803 3.514823886968255 0 0 0
690 86 2 0.5564 -6.942691756688945 -9.505996005911491 2.9640642427659265 0 0 0
706 92 1 -1.1128 -9.519912662411983 -6.243143057470758 2.7793942109023164 0 0 0
707 92 2 0.5564 -8.96266153411458 -6.898891608876418 3.2012894317103395 0 0 0
708 92 2 0.5564 -9.417425803473439 -5.457965333652824 3.319316357387344 0 0 0
709 93 1 -1.1128 -6.265062938320463 -6.584865625727915 3.074382843831355 0 0 0
710 93 2 0.5564 -5.429216527497273 -6.139599883684817 3.22145342714699 0 0 0
711 93 2 0.5564 -6.905720534182265 -5.875534490587269 3.004163729021655 0 0 0
727 99 1 -1.1128 -9.053291601035896 -3.3573924630592344 2.9390805781116867 0 0 0
728 99 2 0.5564 -9.32819740659788 -3.3021489265118884 3.855544166989095 0 0 0
729 99 2 0.5564 -9.518510992366226 -2.6404586104288774 2.505375254899219 0 0 0
730 100 1 -1.1128 -6.529281544746587 -3.2207006008230388 3.2732512734448425 0 0 0
731 100 2 0.5564 -6.435113732396491 -2.5514661946154726 2.5937012071029995 0 0 0
732 100 2 0.5564 -5.635604722856923 -3.5278332045614893 3.4330475194521584 0 0 0
748 106 1 -1.1128 -9.53540825813545 -9.612238748312906 6.210044428984453 0 0 0
749 106 2 0.5564 -8.577234230884486 -9.59905245982179 6.226144593502229 0 0 0
750 106 2 0.5564 -9.787357510980065 -8.688708791865306 6.163810977513319 0 0 0
751 107 1 -1.1128 -5.910985876830058 -9.43580137437326 6.425919892498742 0 0 0
752 107 2 0.5564 -6.849057970992423 -9.617227053276757 6.5009933844132535 0 0 0
753 107 2 0.5564 -5.83995615217752 -8.846971572349986 5.673086723088005 0 0 0
769 113 1 -1.1128 -9.621780148639385 -6.353072314912562 6.361361014030423 0 0 0
770 113 2 0.5564 -8.743729856866912 -6.735666358070816 6.327009256315601 0 0 0
771 113 2 0.5564 -9.534489994493706 -5.511261327016623 5.911629729653977 0 0 0
772 114 1 -1.1128 -6.324452118772366 -6.569189700732844 6.165048469191438 0 0 0
773 114 2 0.5564 -5.505690367126271 -6.260528210963365 6.556057214329837 0 0 0
774 114 2 0.5564 -6.769857514101362 -5.770282088303791 5.878894316478726 0 0 0
790 120 1 -1.1128 -9.446411706984891 -3.459237708837588 6.250228031087144 0 0 0
791 120 2 0.5564 -8.626114197992198 -3.1060431045276973 6.597929236472979 0 0 0
792 120 2 0.5564 -9.827474095022913 -2.734719186634715 5.751842732439878 0 0 0
793 121 1 -1.1128 -6.1127318230075085 -3.312658903773518 5.883501294741586 0 0 0
794 121 2 0.5564 -6.094201362639612 -2.358603194797439 5.972747505914411 0 0 0