LAMMPS data file via write_data, version 2 Aug 2023, timestep = 30000, units = real

576 atoms
3 atom types

-12.15958814509652 32.74516585669389 xlo xhi
2.316358282925984 18.26921942866687 ylo yhi
1.3959542953413138 19.189623416252907 zlo zhi

Masses

1 28.0855
2 15.999
3 1.008

Atoms # full

290 33 1 1.91395856061788 -6.070523566953544 5.893413422673275 5.002494506044757 0 2 -1
402 45 2 -1.003109792261491 -4.838522964381135 4.529046992076076 8.658077502959609 4 4 -3
488 55 1 2.046073468829853 -5.943996672201536 5.506928243759926 8.13615862909315 1 1 -1
124 14 2 -0.9752372720407341 -5.846914504454545 5.88601453241092 6.563792068377469 -3 -3 2
210 24 1 1.924426174209602 -5.972237962847622 8.461366742168046 9.14821568654132 1 -1 -5
419 47 2 -0.986097457299807 -5.72921582967973 6.924853684828334 8.831676696912435 -8 -1 -1
306 34 2 -0.9576917542585267 -5.722225053216396 9.358254610118738 7.8186886697415465 -2 0 0
536 60 2 -0.9334435182023075 -6.675625210044526 4.443558383605049 4.594381189100308 1 4 2
404 45 2 -0.9246870952944954 -7.045991312004641 7.223292840191223 4.7464915858431755 6 -3 4
330 37 2 -0.958482913542953 -6.926502471753782 9.952384924885518 4.146773854909412 -2 2 -7
159 18 2 -0.9857888987914769 -7.48717572583407 8.54541487846454 9.608844325293292 2 2 -14
61 7 2 -0.9993627201892242 -7.441174112785598 4.912045200633277 8.368010178434814 -6 4 -1
507 57 1 1.966230984719979 -7.76276193324054 8.556190139793358 4.215136872162937 -3 -5 6
332 37 2 -0.9532954377815251 -7.291918565035536 2.9506759923234824 2.484053604316739 -2 0 -2
198 22 2 -0.965401714017012 -8.051294820303312 8.19591308352813 2.718619055132605 6 -3 0
302 34 2 -0.9461431650743408 -10.026916856410846 9.130923062347126 9.279271569509017 -2 -3 5
120 14 1 1.996658279989954 -7.631409703905551 3.2291940810411295 4.03802273340808 -4 5 -5
137 16 1 2.002275433646163 -8.972898770211943 5.2001859902031935 8.235469705515984 2 2 -1
260 29 2 -1.016322455596952 -9.529855672633747 6.686891900610105 8.450387235975372 -1 -1 2
374 42 2 -0.9517301493702682 -9.132567629273513 8.87113442860058 5.0187498327006965 -2 0 -6
4 1 2 -0.9902393689760544 -9.47833154037328 4.577701946800299 6.946442006088721 1 -2 5
126 14 2 -0.970273361117634 -9.004038994222984 3.9581828035635684 4.297178572151783 -4 6 4
36 4 2 -0.8925129456026677 -9.578192714413145 4.228229518019732 9.4730895681159 3 2 2
425 48 1 1.815569978380135 -10.073400656932971 4.370919447620706 5.464149276574361 -5 3 -1
110 13 1 1.885688072829741 -10.601831743153292 7.851518966658562 8.47522693753186 2 3 -5
354 40 1 1.79708448580122 -10.615455648757516 9.217378094790053 5.581896081933362 0 4 -1
436 49 2 -0.9178189661059457 -10.727786860048724 8.493230167582865 6.997008602329313 -2 -3 11
242 27 2 -0.9143935263638278 -10.784661526909291 6.862684580991112 2.753367543070225 -3 0 3
268 30 2 -0.9114059775809324 -10.902841930453834 5.790679148068991 5.092475624225406 5 2 4
146 17 1 1.737768597697179 -11.730347744557786 6.795433683882943 4.13388687878361 3 1 -7
574 64 2 -0.8551727786753627 -11.700408832371803 8.324217906632473 4.669520037362767 2 -1 0
16 2 2 -0.9113492109297762 -10.93859532740564 3.0321421212371744 5.622100799826118 0 7 -2
424 48 1 1.720824554820495 -11.573961488724281 3.168899362951477 2.0026280694545795 -3 -8 -1
179 20 2 -0.8600737428914171 -10.487947130712561 4.434007461920323 1.837839152771046 2 1 -5
214 24 2 -0.8763832590249514 -11.92488329190796 7.198561516122292 9.165440855629315 8 -1 6
542 61 1 1.875238274352294 -8.717604677660558 9.277599317041448 10.208812386138378 0 -1 -1
48 6 1 1.714451495369227 -10.43992818272826 6.050334921686867 1.4258011883876425 -1 7 1
315 35 2 -0.854325655940964 -4.6178812958216024 6.261067556896819 4.3929225536555325 9 -2 0
380 43 1 1.90949266511926 -4.447654897739118 10.102165775067803 7.186589418373231 2 -5 -1
375 42 2 -0.9560473807774824 -4.285817476673117 5.0589766693696046 1.7723488856738903 3 9 3
377 42 2 -0.9532365423604316 -3.9145208513019583 9.011198518615299 3.175156897647908 -4 5 -6
231 26 2 -0.9451436561777264 -4.27889510490862 9.678226284532887 5.661820398789535 2 1 6
60 7 2 -0.91244555680704 -4.090039489573156 2.9796330428727047 3.2170360103419973 5 -1 -4
366 41 2 -0.9142454953353298 -3.329633693343954 4.208579756140247 5.367613890717851 -1 2 3
75 9 1 1.764595977798286 -3.0872562986411456 5.705241979837101 4.815525020901034 -2 -3 3
46 6 1 1.938044719223928 -3.69139847367863 3.551567489184176 9.18100699433706 0 -2 4
352 40 1 1.781691593392697 -3.4781203890437506 2.7308353380151225 4.664938691732629 -1 -9 6
300 34 1 1.876129365066755 -3.4822087844375673 3.7123360719910217 1.8561866973220673 6 -2 -6
360 40 2 -0.9946775235146216 -1.9642828579459213 5.810528580261115 3.629395518765815 1 -2 0
118 14 1 1.910418853161349 -3.2826583684848867 9.784766484175211 4.434102391784763 4 -2 -1
364 41 2 -0.9410817541913852 -3.1150592044866716 9.582969613167744 7.9876632687134785 -5 -5 -1
220 25 2 -0.9058780341637126 -2.261556544602149 4.2124006680927675 8.637854953622748 -6 -3 4
470 53 1 1.936615278304338 -1.4136897932746457 7.876618982818135 5.852335349922244 -4 4 1
474 53 2 -1.012084052280344 -1.9792569678587615 9.012615143532853 4.893488855725709 2 -5 -1
175 20 2 -0.9124150097720415 -2.554152150143917 6.7462916377673725 5.955488093947933 3 -4 -4
408 46 1 1.999260933215654 -0.9731325923816616 5.271692620735484 2.5473960374951274 -1 2 5
38 5 1 1.925350713172824 -1.8003872116525663 8.876228242384727 8.60176882234557 -2 8 -4
314 35 2 -0.9659067431861995 -1.007895470075395 8.506097883558079 7.255313049522618 6 1 7
401 45 2 -0.9706238400679105 -2.2846489365974936 7.688098643079773 9.583585165536565 -2 -1 -6
201 23 1 1.850686115707944 -0.6940179843404035 4.038410707595094 8.268896935275983 -2 3 2
168 19 2 -0.9642966719093459 -0.9228375465003555 9.799241518238635 9.584582803196232 2 4 0
484 54 2 -0.9363106341455629 -0.4789421111425156 3.2295845974949575 6.899480118000187 -4 1 6
40 5 2 -0.9833128664631808 -0.04764306023209741 3.2350917054980313 9.515358954259282 4 -1 6
239 27 2 -0.9661369681944852 0.42683654773075297 4.811366720977268 3.1613516247904014 4 5 6
228 26 1 1.895327974241946 1.6040187314258336 9.970209434711446 2.061600139036403 5 -1 7
553 62 2 -0.8984601184287045 1.918088278683955 7.010332837759488 6.8354457762186716 -1 5 0
498 56 1 2.082070859180741 1.4741281351445892 7.3949221339729885 5.310105668858501 2 5 4
324 36 2 -0.9705834029776905 0.45267993804842277 8.795040947119848 2.3890953425608057 2 -1 0
476 53 2 -0.9235223360096354 0.0835504192942107 5.446067801633839 8.16912949786892 1 7 0
411 46 2 -1.029274892640662 -0.0837482150835136 7.2374131010224385 5.257109322083046 6 -8 -7
180 20 2 -0.9923372924366831 2.021382588819719 8.880969204997324 5.130408182071005 7 -1 5
278 31 2 -0.9847507987707229 1.4314075453715684 7.199253721656821 9.411357747629566 1 7 4
236 27 1 1.847707904484032 1.549270725668661 6.179650160430272 8.193692802082309 2 1 -1
173 20 1 1.958775646730696 1.9752326884615066 4.978270066440425 3.5674449269648347 5 -7 3
256 29 2 -0.9953923035317035 2.1047448104854016 6.406911171128224 4.319640821299868 2 -1 -3
199 23 1 1.9863663117556 -3.5807097904181777 8.83251854559855 1.627745375876235 -2 -2 -1
123 14 2 -0.9180854708017356 -1.882191542741639 4.048282607071174 1.923094136390968 1 -2 2
50 6 2 -0.9932983902062287 -0.6780173807436043 6.4534634907348565 1.5454523367700541 2 2 -6
493 55 2 -0.9060766813695976 2.7248777281398215 3.85823217817527 4.447728109640384 -4 1 1
517 58 2 -0.9213407699403916 2.700789234262148 10.282403674419069 8.229160727351328 -4 -4 2
151 17 2 -1.020760604288648 -2.044125371866503 8.633867310716084 1.4191068809334217 1 -7 -3
145 17 1 1.984881101430098 -0.5633177965327736 8.071555325874382 1.4056400180353261 -1 0 9
503 56 2 -0.9220816686604754 7.458015731042881 5.143691511502107 10.208446338531866 -7 -4 -2
27 3 2 -0.8711955065767334 2.897645342931469 2.7373315432503453 9.117185206768227 6 11 0
284 32 2 -0.9401038768951073 8.245308045491655 5.194014877385197 1.630575204463613 1 0 -1
550 62 1 1.884730840239099 3.448656622658893 4.254216685930741 9.450179592333498 -5 1 -9
311 35 2 -0.9053236752760757 5.672163560000577 8.224262897918472 4.738756172267388 0 -6 0
289 33 1 1.815634016821772 6.342796010367337 8.601772214021658 3.336512627482632 2 -4 -1
57 7 1 1.832505531587484 5.9308144780803715 8.138565971468674 6.340759476522038 3 5 -1
558 62 2 -0.9301310271949217 5.065661805571953 4.386914061190085 9.558260086661836 3 2 -4
131 15 2 -0.9195163083621497 4.921747706116083 4.2430368489489565 5.775021956066147 4 4 1
111 13 1 1.875230478810143 4.132335660476244 9.610378360594424 8.57590963896402 0 -3 5
422 47 2 -0.9300955752784749 2.842138210351086 5.2083567268865725 8.352235790686777 0 -1 -2
107 12 2 -0.8569929630143361 5.555192767188029 6.624621216672491 6.768142699037059 -1 -1 -2
227 26 1 1.860184186810083 4.062435799701092 3.070758729056094 5.0574456478007885 1 2 0
373 42 2 -0.8852127054674636 2.9064922617199223 5.0573984484522185 2.2298151809365963 -3 3 0
35 4 2 -0.9358297174654345 5.2266478378546 9.165500606150758 2.2698649633610777 5 4 2
501 56 2 -0.8944668603134874 4.961226425589643 8.971107991634517 7.380366282957728 -5 7 1
420 47 2 -0.9495494009989723 3.6869013031723448 8.443883405554828 9.565890820693019 -1 -4 2
381 43 1 1.853271454413315 6.6307484548478115 4.067192971011206 9.325065605649622 -2 -1 -5
13 2 2 -0.9366503014294661 6.784845467862713 4.454375114795418 7.749363530785952 -1 -4 -2
446 50 2 -0.8943332327691444 7.021398108968288 7.257131781299284 2.5794646547133544 0 -1 3
273 31 1 1.877504055438667 6.117353249268781 5.1223087271728645 6.437729480718077 -2 -8 6
216 24 2 -0.9566647039849682 7.255756577225945 2.5451119963524422 9.377564411625746 -6 7 -7
5 1 2 -0.9583109279119881 7.2333812857162165 5.207689302105708 5.332671289793739 4 9 -1
477 53 2 -0.8709922182592975 7.481493724581824 9.762441652238001 3.535377165514478 2 8 3
382 43 2 -0.9139341636816597 7.5715396715017285 8.170822315398265 6.668739805389702 -5 5 -5
464 52 2 -0.9094866946122466 5.602767576938998 5.089620158830167 1.8642136889275835 -5 2 3
320 36 2 -0.9547642256470402 7.652897224422009 3.1939104857910228 3.891115062759537 -8 -1 -5
370 42 1 1.854829731583725 8.455919683688734 4.343965361961327 4.730848063089384 4 0 5
112 13 2 -0.9943783453870646 8.359286572603327 6.965311032834569 8.806027497054354 -7 5 -7
91 11 1 1.950670033357655 8.89914442080612 7.757370719019199 7.5260022066017545 7 3 5
45 5 2 -0.9699791863077821 9.459140569863077 9.153725944597756 8.114252268231867 -2 -3 -5
162 18 2 -0.9622648150969924 9.332912352609938 5.269982829507113 3.809876310387039 1 0 -5
570 64 1 1.919589866338357 9.668467605386557 5.433529410387014 2.2746289485147906 -6 -4 0
171 19 2 -0.9484480053670578 9.559036061829637 3.763271427920283 5.722026119641481 3 -2 3
418 47 2 -0.9790745390994482 9.883840115137307 2.635316102829555 9.534830128533615 -5 2 1
170 19 2 -0.957758580325609 10.045134841363229 6.946911530353866 6.75060276478234 -5 -7 -3
497 56 1 1.791672744739121 6.87806869029162 6.052413015464364 1.5278480616831618 -1 3 3
43 5 2 -0.8688952094474542 10.103933937279123 6.954082394911598 1.8985958934847145 -6 3 -5
529 59 2 -0.9297309149252684 2.8321906519817794 9.197078340234938 1.4498427884970686 0 -1 1
164 19 1 1.908272443928491 7.8733422847385945 6.664558453017169 10.26685687757301 -8 7 -1
430 48 2 -0.9307488580128813 -10.301632495630606 12.979528491761785 1.4289132300713614 -2 1 5
494 55 2 -0.9810979766903816 -8.893931640300687 15.556508691895198 5.255161641831641 -1 -4 -5
301 34 2 -0.9314888920949834 -8.562972306602996 14.432298451027483 8.262181802369497 -2 -2 1
76 9 2 -0.9117012470343964 -7.325186139482181 16.452615160697633 7.021341695675766 4 4 -4
344 39 1 1.885619757672205 -6.851411466681669 11.418240367217965 3.519539861959168 1 0 3
3 1 1 1.737262671017661 -5.3310180145039325 12.969595570387073 7.854817698595821 5 -7 -4
29 4 1 1.987915576244127 -5.686248285284518 13.987887405914725 5.0763930058536335 -4 4 -2
140 16 2 -0.9850557118507088 -5.739149477624363 13.883730726772455 6.629263044805869 -4 1 6
221 25 2 -0.9679823294159532 -6.323080110042926 12.648294800758343 4.456025258039027 0 -3 1
224 25 2 -0.9549139328359619 -5.894749570058992 11.346581588732292 2.2576550674153224 0 -1 0
86 10 2 -0.9622044028156055 -6.431353093357428 15.356920648915288 4.7787246517140245 -7 8 2
196 22 2 -0.8962370082867196 -6.814233939065144 12.408505508512896 8.363560863368205 4 6 -1
192 22 1 1.978942328763314 -7.5392561668724705 16.341065892289535 5.416141838680003 2 3 2
116 13 2 -0.9390115675829125 -7.019970187249968 16.167389112869408 9.643360353988433 2 0 6
165 19 1 1.662145863475112 -8.28652876207937 12.869531470816316 7.959775511834779 2 -1 3
197 22 2 -1.035516432392627 -7.494468506154526 17.827408138363232 4.803192479401277 2 -1 6
271 31 1 1.796846625021788 -7.998671420996726 15.975364220007114 8.403948975021484 5 -2 -4
203 23 2 -0.8547473807038243 -9.373816594767222 12.157052376886208 9.040740407025172 4 -4 2
347 39 2 -0.8857904280800228 -8.817517399847574 12.43198320042124 6.4452173167935705 4 -4 -5
557 62 2 -0.9571884113801565 -8.311372052833812 11.840116396919235 2.9338468501651866 0 -1 3
33 4 2 -0.8335237598642621 -9.365310683021374 16.8286643069926 8.728902313057876 1 -3 -12
443 50 1 1.470155707913247 -10.305554767583248 12.269992441733532 5.9017657578940685 4 3 2
122 14 2 -0.9160530605945298 -10.460159635449747 14.985493932341807 3.2321532597299876 -4 -1 0
182 21 1 1.8159111875912 -10.438535694243756 15.109854167995383 4.847083237168409 -4 -2 3
485 54 2 -0.8869993682143905 -10.911394726825419 10.866128315417692 5.621406844266582 -1 -1 -2
490 55 2 -0.8844083143986923 -10.92818481679092 13.659117002261693 5.370351037357649 4 -8 0
92 11 1 1.338502874680414 -10.712987033160863 16.499681543933022 9.58832719272816 0 -2 0
257 29 2 -0.9213958956437958 -11.276795844767914 18.15754880386039 3.267203480034794 -8 -1 -2
93 11 1 1.697646707612334 -11.114854091341147 14.275602983245195 1.910461024508285 -1 0 -1
275 31 2 -0.8500316834040078 -11.354749537591777 16.372604894464573 5.246713916903022 0 3 1
325 37 1 1.766718974631174 -8.766790196826312 12.436949577389377 1.4877058978142315 -3 8 2
390 44 1 1.708386188200146 -11.775670405935848 17.915345659403805 4.782908033690486 6 0 -1
576 64 2 -0.9417099926728261 -6.618609437013948 16.44237040784607 1.537510433504808 -2 4 -3
77 9 2 -0.4519754675961372 -12.094037116567696 16.131102251390587 8.88345901382107 -3 -7 -9
249 28 2 -0.8615996567786538 -1.9790956159274522 18.211186527172643 4.223260842297465 2 -1 -4
250 28 2 -0.8106292545843788 -4.475789744563387 13.739125270280578 9.138467798640058 -3 -2 5
386 43 2 -0.9029031270663758 -4.495270911060718 11.718612368378915 7.223429667587094 4 -1 -4
575 64 2 -0.8886940731903258 -4.183028929682321 14.34197172664846 4.591803580235772 4 4 -5
94 11 2 -0.9470356898520217 -4.194960864524546 15.896732594928213 2.405341432214974 6 1 0
163 19 1 1.865622225752907 2.204226230124343 10.424771618234372 4.9139007305807905 1 -1 0
212 24 2 -0.9507604090852683 -3.749662759847702 18.126751745179888 8.356940410774019 -3 -2 -6
439 49 2 -0.946132942376855 2.216454390546712 10.755368282035299 3.3430409580490172 -7 1 1
274 31 2 -0.9090548421027478 -3.651379645999164 15.678473619677595 7.887604757745033 11 2 1
299 34 1 1.900976915868533 -3.3405774355157174 17.090342078142925 7.199530652935014 3 -1 2
307 35 1 1.796006079839846 -3.311144884064058 14.84441197418556 3.2707087182758285 0 0 -2
350 39 2 -0.9250556759036201 -2.774250365093449 13.538312898677136 2.5072909252266458 -6 1 4
189 21 2 -0.9066758503287945 -3.9534390061748965 17.590772847603745 5.748703884009389 -2 1 0
65 8 1 1.82355511630884 2.132091929575079 11.835232528041614 8.379102327210306 4 -4 -6
53 6 2 -0.9140552600146052 -2.035501259399954 15.695392059624595 3.854565010333448 -1 -4 -2
506 57 1 1.895075389620363 0.07508498073688763 12.57648911414758 5.095467383545643 -2 -2 0
438 49 2 -0.9851748146278845 1.002069884720898 11.321551831460003 5.534699282362637 4 -4 -2
391 44 2 -0.9212100459302857 -1.9604068687936795 13.536999117875101 8.573358368393118 -3 3 -7
156 18 1 1.844950617076445 -2.0730713072602267 12.144628996202785 2.8946510413799347 1 4 -5
554 62 2 -1.040893235494689 -1.7403316005893128 17.014192832851627 7.0280173896624305 3 -7 -2
144 16 2 -0.9392344411604108 -3.094940114208006 11.276650589922935 3.7619868894636226 1 1 6
190 22 1 1.838448549728538 -3.119967820191153 14.598442040242558 8.97675381443548 5 1 -3
208 24 1 1.749595883989447 -0.9791398777293772 16.922601527282865 3.844798715117802 2 2 2
70 8 2 -0.9917817329253498 -0.7238345572818474 12.208037511175442 3.816775629969146 5 -2 8
523 59 1 1.946486327201534 -0.3483702729040914 17.570713606671575 6.65033408763857 -2 -2 -2
106 12 2 -0.8993072797349081 -0.013181042202521809 17.022244621477597 5.17181375617295 -2 8 -4
14 2 2 -0.8904443406115655 0.4993426189298642 12.193922014256048 8.33838650720337 -3 1 2
211 24 2 -0.9037383048513109 -0.8888757384181964 13.039033635056834 6.305127453021927 3 1 2
448 50 2 -0.8726652922313647 -0.3718852411188589 17.43634069283526 2.4463773102510507 -2 -12 6
226 26 1 2.015789826662053 1.4314405681422038 15.773045632327065 8.146132661440861 3 2 0
414 46 2 -0.9252701117169452 0.9357635070951087 13.905545011398512 5.011850108614525 8 1 -1
166 19 2 -1.0156928306544 0.2787837914687863 14.654908543295148 8.219112929604188 4 -5 3
71 8 2 -0.9310675474267489 2.2093327660451703 16.148593023753694 9.489230269039867 7 -2 -6
442 50 1 1.895246159885786 -0.5306437441425302 13.342769888404375 7.885072766013719 0 -1 -3
365 41 2 -1.040905238813067 0.766714806019392 17.08034507096867 7.643887763339073 1 0 -4
449 50 2 -0.9245687863196435 1.6835947841327918 14.024011729437904 2.761067049834062 -5 2 -2
335 38 1 1.772277701110389 2.309699266402692 14.270090383512086 4.183254463152268 2 7 0
26 3 2 -0.9650779789476697 2.593661192866472 12.27963183718897 9.877548834610776 -1 3 -5
413 46 2 -0.8381391499761424 2.8086607186942114 15.854531543830204 4.563914412118085 3 2 1
176 20 2 -0.9282485534926508 2.651257036539855 15.524939706342117 7.160250571364896 5 -2 -5
56 7 1 1.803891698067538 2.528665910361479 17.552819239939392 10.206178667302206 -2 -5 0
499 56 2 -0.8640734971757918 2.7696231798570086 15.857743156061854 1.450628530282225 3 -8 1
500 56 2 -0.8629619122767485 -1.7620893793422017 11.559215832771889 1.4121232415678577 4 -7 -3
473 53 2 -0.9551017454314763 8.79886328717794 16.397062990468193 10.109117965776678 -2 -2 1
186 21 2 -0.9177462304308155 5.113304971617087 18.26350892190851 4.147081985902858 -7 -2 -4
304 34 2 -0.8949256617244338 10.26096165497804 13.445513850653697 6.166681530495008 6 3 0
327 37 1 1.685434663277343 7.838949108687096 11.315141387226877 3.1080842106588333 1 0 6
103 12 2 -0.9656025653421932 9.97062338329578 11.60047655464479 8.855164201029577 4 7 -8
416 47 1 1.873452893200619 5.822182063723627 13.91519732266633 10.271453879400344 -1 3 -9
527 59 2 -0.9670938390300546 7.494345581550814 10.757240050828223 8.421227540259064 -4 -1 0
277 31 2 -0.9609093246100786 5.064405403807914 10.709520346183833 9.308792858274128 -2 2 -6
337 38 2 -0.9437480724535066 3.4711405524651955 13.32795399444975 4.796478877637807 -6 1 -1
167 19 2 -0.8942388814562502 7.263186769749005 14.94151003462281 7.054652087203425 -4 3 1
252 28 2 -0.9306832233219658 4.943121574002376 15.530992895624577 6.282566524410213 3 -6 -1
540 60 2 -0.9094897922590655 5.0100256934597205 14.38291420202636 2.2186265147468283 -1 9 13
421 47 2 -0.8832299595470203 3.661116039160836 17.853160262312727 6.102877442654329 -1 -3 3
533 60 1 1.794148956097383 9.838922160934874 12.040828039197935 5.395323964504033 10 -7 3
34 4 2 -0.8741660258532504 5.443664686918396 14.544427668892347 8.795400711093045 -5 4 -5
348 39 2 -0.944472343859035 6.670689697331749 12.574042516217304 10.05648464956606 -4 1 3
496 56 1 1.824421452432976 6.637936724465771 10.976807139519067 9.737739289342702 -4 0 -4
384 43 2 -0.8222545110521894 8.866076493342831 12.249709189457834 4.106153473917985 7 -1 2
453 51 1 1.811358392235 3.8270617870560617 12.531998523411303 6.104845107658875 -6 0 3
303 34 2 -0.9357216595433518 9.099737256216535 11.093823117476937 6.4581830907526605 6 -1 4
11 2 1 1.826583233681205 5.73530824308715 14.497145950603871 7.175452489476047 3 7 -3
526 59 2 -0.8767071552177008 3.556920355564488 10.987031132742954 5.692868420372073 4 -7 2
80 9 2 -0.9519811098309712 9.671695514612654 16.142995027257882 2.611915733400595 -7 1 4
410 46 2 -0.9834721898535993 2.904214234885721 12.78126607402279 7.36001264654098 4 -3 3
431 48 2 -0.868913390020026 5.345717238766607 13.058029243668855 6.483564856160285 -2 -6 7
67 8 2 -0.9312823234316109 9.165129533275032 15.812183108259596 5.4765412632098665 -3 -3 -5
426 48 1 1.984340593509661 9.006869948081238 10.674887862121947 7.987504791303281 0 -6 6
336 38 1 1.78887349269381 3.5378792375846118 16.250596559721046 5.979289511389728 -1 -5 -3
403 45 2 -0.9326305862787189 7.093080895576861 16.657348136444995 3.471014182178383 -2 -2 -5
200 23 1 1.900102768340092 8.091070414149371 16.0331087157172 2.352940835432591 0 3 -2
12 2 1 1.834341074743244 7.983373612815843 16.30719573060147 6.508459468340675 -2 2 1
491 55 2 -0.8852065794669564 6.504775261022235 12.243132301170501 2.9044544467695625 -6 1 0
441 49 2 -0.9116995738412375 8.696332655951476 11.273246016573855 1.7166357729942336 -1 0 -3
460 52 1 1.912496500999065 6.366351161366751 13.579235240149414 1.9959533075026537 5 0 -3
456 51 2 -0.9235683336342524 6.905206499352136 17.30246917390801 5.821692960909482 -4 -3 3
471 53 1 1.814623642304547 6.703909363735107 17.922785162113065 4.332423912950462 1 0 -3
58 7 2 -0.9178527010226221 8.71778805600697 17.135174248197103 7.68769267400028 2 1 1
372 42 1 1.976597162962825 8.627241853753056 17.709240627352376 9.18563330081573 5 5 -2
482 54 2 -0.9475618348770093 7.686840136356221 14.463113976891762 2.1033617291697007 9 6 3
101 12 1 2.001323288701043 -5.025253693218051 7.918928130253522 11.921660429523682 5 -1 2
285 32 2 -0.9499312777040662 -5.093202723065717 8.778531581241456 13.224885898962917 -2 -1 3
321 36 2 -1.082963162634524 -5.773078129373214 4.170175773870732 12.26730922807532 4 0 2
569 64 1 1.917206610812894 -4.813247662605371 8.643386046881863 14.7946953689378 9 -2 6
328 37 2 -1.003359953944058 -6.066333761463064 6.722532029565384 12.13691278009684 6 3 -6
41 5 2 -0.885612054423598 -6.164356438494629 9.239695117983974 15.473839058778944 0 -5 8
264 30 1 2.053795530475431 -4.927034389258422 2.9366402834599015 11.86838784418183 -3 -6 -1
524 59 1 1.945248238309339 -5.0090960789509325 6.164453865392572 18.619351311741497 1 -10 2
455 51 2 -0.9797572602597788 -5.806114981061791 2.638774551692519 15.432395117554204 8 6 1
100 12 1 2.104221225056981 -6.831406594287439 5.332746690844084 12.344345587213807 -2 6 -2
338 38 2 -0.8457153151445811 -6.831430260995449 8.95409774569049 17.92470176034538 -1 -1 -2
552 62 1 1.896606610553162 -7.1433267684969115 3.0021143500063148 16.17447426781262 -4 0 7
316 36 1 1.678239798439717 -7.413142761491035 8.724686796717927 16.361053345773467 5 -4 -1
108 12 2 -0.8335101723323168 -8.788506529524696 9.575515343492327 16.326287204785714 4 0 3
229 26 2 -0.9949921569812397 -7.8871027449146025 5.080873128180951 11.228736979767168 -3 5 0
160 18 2 -0.8801355139139462 -7.697758000815671 7.174156853254516 15.855605290614765 -6 -1 0
396 44 2 -1.008826052553218 -7.604209873274023 5.448914909134164 13.734839327689373 -1 -7 8
142 16 2 -0.911511329514969 -7.390002487010802 4.59121265927258 16.149514989407894 -1 7 -6
472 53 2 -0.9481532093421331 -7.169119978247238 2.4256644661726803 17.72475917240437 -7 3 -3
371 42 1 1.832715041551005 -8.120517292398052 5.6922147026478065 15.232711073820044 -2 -3 3
267 30 2 -1.055416390709255 -9.290706580283981 2.9176591266418255 11.890113788358462 -10 2 3
51 6 2 -0.9416095311840217 -9.243673635196403 8.348612487725687 11.425275604723351 0 0 -1
292 33 2 -0.8166951110715812 -9.810161582878994 5.487424528669877 15.177452204479835 4 6 -3
262 30 1 1.843039239370644 -9.290638054739194 4.265541368717698 11.048440160900618 2 0 -1
538 60 2 -0.8218995088521136 -9.041671961579192 6.646011714908431 18.50825058281425 2 7 10
81 9 2 -0.9897606470405278 -10.329273974759918 7.529871225327518 13.641592749746764 2 -3 3
97 11 2 -0.7538285232392012 -10.883982317778829 9.528815357796786 18.21894142504562 -3 -3 -1
334 38 1 1.936202945657014 -10.443737358586752 8.511203939777904 12.450695003136811 -3 -2 0
310 35 2 -0.9195160376950247 -10.457451837237095 5.221341373747177 11.612180014859764 -4 -2 3
440 49 2 -0.9076981997174707 -10.586485783822216 10.034718089627177 12.961613537426578 -1 -3 2
37 5 1 1.741986253059769 -11.029820152559543 6.476752012768327 14.624603006429442 0 8 -4
204 23 2 -0.8714869707339469 -11.81513697043208 7.237899042428084 15.802644012132975 -1 -6 -5
356 40 2 -0.8645013622572018 -11.666831867734896 6.1540528316790635 18.226797217120172 -3 2 -6
392 44 2 -0.9345959919842101 -5.175764334795505 8.761508816891421 10.56436859721264 3 -7 1
15 2 2 -0.8895100522393367 -8.4737950974985 2.4680726083587747 15.370391885396476 -5 0 4
64 8 1 1.539853504128697 -7.745546378987521 7.51907377044429 19.121242594733147 6 -5 -8
149 17 2 -0.9454978921382838 -11.810805314310404 8.337437941172226 11.613606976985674 -4 -3 3
313 35 2 -0.785724191708479 -12.032734720931247 5.476124650172515 13.742458114325604 2 -3 -3
187 21 2 -0.9035597864986238 -6.510105395080874 6.515236846095425 19.15408910543178 0 1 3
505 57 1 1.287716696193064 -11.908763479300045 5.05668807037217 12.151932794061572 -2 6 3
288 32 2 -1.005720018764678 -4.619705118104143 5.679485214421521 17.13454989459615 -5 4 -4
98 11 2 -0.889507604930908 -4.33996493379169 10.037405246876755 18.62292324498054 -10 -2 -3
432 48 2 -0.9960380570000059 -4.233558884030401 7.522236457091806 18.825967151101302 -2 4 2
281 32 1 1.905607082531676 -4.330687144574823 2.9148315031295415 14.849556558037914 3 6 -2
269 30 2 -1.03138487963717 -4.5985169646089314 7.091350449879895 15.015388971448107 4 7 -3
322 36 2 -0.900021645007027 -4.204348564213598 2.5632733479925527 13.254860415093068 5 -10 4
287 32 2 -0.9604836551363231 -4.157441169065001 4.506336431601756 14.950593591797135 1 2 -10
521 58 2 -0.9719918311572235 -3.8107700305054664 3.3574369648244122 10.755694104569931 4 1 5
83 10 1 2.014764525079452 -3.9192999781811437 5.881792041482639 15.744510087749207 -3 -2 -1
195 22 2 -0.9604026149252151 -3.500227436306133 7.365659124115683 11.86580513056837 -6 -5 -3
369 41 2 -0.9505508149801972 -3.4303950599377746 9.446613547179293 15.128416010598775 5 -1 0
95 11 2 -0.9351044015319411 -2.3093372896196893 5.983944561969504 16.05949503062714 11 4 -9
345 39 1 1.928302235117148 -2.090730444173259 7.358377608590583 11.122327930285188 -2 5 -3
230 26 2 -0.9504910843634535 -1.363993039175071 5.931971049409922 11.277715606324104 0 -1 3
397 45 1 1.988004019024894 -0.9349336698306914 5.4872268228451695 15.404425370036696 5 -2 3
152 17 2 -0.9578802162249295 -1.282141548710518 5.490497505947397 13.840166903080817 0 -3 0
563 63 2 -1.006062375396364 -0.9790814401078087 8.434398406412168 11.641602596326038 7 1 0
406 46 1 1.980865376857311 -0.22545111181465316 9.649856263474682 10.975623924964214 6 2 7
463 52 2 -0.926926169726514 -0.5050055342261057 3.5497564264377823 12.144041023279128 -1 -4 -2
516 58 1 1.911353812411567 -0.5710177541828845 5.1290884806948664 12.416657088318946 -6 0 0
409 46 2 -0.8782371847199687 -0.5933218971078436 4.015526618143155 15.913873626917505 4 5 3
139 16 2 -0.9872684018626439 0.9659328517210106 5.5609199440071775 12.473980180331141 0 -3 2
512 57 2 -0.991319448890284 0.1063503907925476 6.6165509091209085 15.808266260748464 0 -2 -5
291 33 1 1.750643759285607 0.42676518593879287 2.661060416093306 16.233571611274844 0 -2 0
133 15 2 -0.9653864228844282 1.0273598671705688 9.012497465743817 15.445028506231312 3 0 1
388 44 1 2.081367752528745 0.9468027619745296 7.76341656342509 16.49012161422053 2 6 -3
457 51 2 -1.006368730429722 0.1299423803407702 8.25039688682973 17.764882449212344 2 -1 -5
486 54 2 -0.9966497324990614 1.38675072625548 9.302517158295554 10.772966100058206 -3 -8 -4
206 23 2 -0.8876194579464269 1.903677803828364 3.1521133227818954 15.74589234590586 -4 -5 2
248 28 2 -1.044182475378739 2.4180421996016808 7.249181541464817 16.68011586874826 -2 2 3
202 23 2 -0.986975629630628 -3.64521816110911 2.8636587081545373 18.349169024532046 3 5 3
318 36 1 1.976994785450328 2.4834487822986606 5.716063040318987 12.014988495730368 0 6 2
309 35 1 1.830152856824339 -0.18896157769137467 2.540430244843717 10.946231878969321 -5 0 -1
367 41 2 -0.9958756986506925 2.707266709643857 7.236836055482841 11.553368527052385 0 -4 1
88 10 2 -1.01264641232404 2.79393475894628 4.649653614735619 10.864397897836053 3 -3 -4
559 63 1 2.005768201803075 2.319740043925931 8.141786971740256 10.364569684547932 7 -2 1
415 47 1 1.894673069246214 1.883014835512796 10.285123227915786 15.07217495397148 -1 1 -4
47 6 1 1.651561512634779 10.189049206374055 7.817291388185423 18.300308848262752 -1 -2 1
548 61 2 -0.906670425250528 8.910351189971639 8.910805931949357 18.319803191494294 8 -4 -3
359 40 2 -1.05308618887155 4.025777167052418 5.703468008483091 17.816235213384047 7 -9 0
399 45 1 1.863635853069056 4.718493462492884 5.384609883307993 14.368134370763793 -6 -2 3
183 21 1 2.106150323026346 3.9471807925304 6.935233393130547 16.838955021102148 2 -4 8
243 27 2 -0.9547144022906365 4.563289189536807 8.28123805817452 17.524783931946466 -3 -7 -10
245 28 1 1.79388711501889 6.295674195305679 8.775413242896299 11.710440483939813 -10 4 3
545 61 2 -0.9381140722105996 4.300557723647884 3.1852319232901216 18.413159994475343 2 -3 2
447 50 2 -0.9162440489760864 3.536662047433291 5.521292570941091 13.253980161794837 -1 0 -2
215 24 2 -0.9355549588133648 4.386992394604114 3.9604692764304694 15.07990624997511 -3 9 5
266 30 2 -0.9718072264844004 4.483578626520394 6.613255223445428 15.403858130445878 1 6 -8