LAMMPS data file via write_data, version 20 Nov 2019, timestep = 30000

1086 atoms
7 atom types
724 bonds
6 bond types
362 angles
9 angle types
0 dihedrals
14 dihedral types

-2.1661723000859659e+01 2.1661723000859659e+01 xlo xhi
-8.1231461253225756e+00 8.1231461253225756e+00 ylo yhi
-8.1231461253225756e+00 8.1231461253225756e+00 zlo zhi

Masses

1 15.9994
2 1.008
3 12.011
4 15.9994
5 1.008
6 15.9994
7 1.008

Pair Coeffs # lj/cut/tip4p/long

1 0.185199 3.1589
2 0 0
3 0.056 3.58141
4 0.1 2.93997
5 0.035 2.38761
6 0.192 3.14487
7 0.046 0.40001

Bond Coeffs # harmonic

1 0 0.9572
2 222.35 1.53
3 308.79 1.1111
4 359.76 1.1415
5 427.715 1.142
6 544.635 0.96

Angle Coeffs # charmm

1 0 104.52 0 0
2 50 109 0 0
3 26.5 110.1 22.53 2.179
4 45 111.5 0 0
5 13.0258 109.4 0 0
6 35.5 109 5.4 1.802
7 55 108.89 0 0
8 75.7 110.1 0 0
9 95 109.7 0 0

Dihedral Coeffs # charmm

1 0.57 1 0 0
2 0.29 2 0 0
3 0.43 3 0 0
4 0.59 1 180 0
5 1.16 2 0 0
6 0.12 1 0 0
7 0.42 2 0 0
8 0.29 3 0 0
9 2.87 1 180 0
10 0.03 2 0 0
11 0.23 3 0 0
12 1.36 1 180 0
13 0.16 2 0 0
14 1.01 3 0 0

Atoms # full

723 241 2 5.2700000000000002e-01 -1.7836002857040576e+01 -2.0322890414829331e+00 -1.1090305683618835e+00 0 0 0
722 241 2 5.2700000000000002e-01 -1.8427846868810512e+01 -2.5450936521632634e+00 -2.4046761615817198e+00 0 0 0
721 241 1 -1.0540000000000000e+00 -1.8230952501492563e+01 -2.8087195268217799e+00 -1.5057951472595290e+00 0 0 0
579 193 2 5.2700000000000002e-01 -1.3235721931211934e+01 -7.5154241280360683e+00 -4.3551306871515543e+00 0 0 1
577 193 1 -1.0540000000000000e+00 -1.2703502980987539e+01 -7.0380215673834403e+00 -4.9915912774740576e+00 0 0 1
692 231 2 5.2700000000000002e-01 -1.4762548100827864e+01 -4.6214002272959380e+00 -6.9189079592333336e-01 0 0 1
164 55 2 5.2700000000000002e-01 -1.5072009009533026e+01 -2.1840842084256602e+00 -1.5982942703131133e+00 0 0 1
163 55 1 -1.0540000000000000e+00 -1.4569429465741383e+01 -2.9353577583977026e+00 -1.2832485546768639e+00 0 0 1
165 55 2 5.2700000000000002e-01 -1.4046051662451616e+01 -2.5881055190419753e+00 -5.6093038677319118e-01 0 0 1
693 231 2 5.2700000000000002e-01 -1.5373617311203391e+01 -6.0057049247014405e+00 -7.3922083012335271e-01 0 0 1
691 231 1 -1.0540000000000000e+00 -1.4948226863121175e+01 -5.3859119422455963e+00 -1.4664069740743191e-01 0 0 1
672 224 2 5.2700000000000002e-01 -1.2548309699072618e+01 -1.1281746107686947e+00 -5.9534209658610564e+00 0 0 1
49 17 1 -1.0540000000000000e+00 -1.8774162470120789e+01 9.1779932692626076e-02 9.6553548035202752e-01 0 0 0
93 31 2 5.2700000000000002e-01 -1.4391147702256902e+01 -3.4026915345032931e+00 -3.2650732321654701e+00 0 1 0
92 31 2 5.2700000000000002e-01 -1.3696284246010281e+01 -4.6625042382112456e+00 -3.7362224416180885e+00 0 1 0
51 17 2 5.2700000000000002e-01 -1.8914480983267175e+01 3.1063702828486939e-01 4.4305648765643468e-02 0 0 0
670 224 1 -1.0540000000000000e+00 -1.3493642429139204e+01 -1.1520485671437175e+00 -5.8050019408033524e+00 0 0 1
671 224 2 5.2700000000000002e-01 -1.3638682306597524e+01 -1.9588904913843432e+00 -5.3108141632085193e+00 0 0 1
1421 474 2 5.2700000000000002e-01 -1.9686242246823511e+01 3.8072661169977824e+00 -1.1356059783484200e+00 1 -1 1
530 177 2 5.2700000000000002e-01 -1.5849611922174695e+01 -3.6824805996081444e+00 -7.7272187029750858e+00 0 1 1
91 31 1 -1.0540000000000000e+00 -1.3747428519905441e+01 -3.7204897170073865e+00 -3.8982253635607726e+00 0 1 0
1314 438 2 5.2700000000000002e-01 -2.1137007895973383e+01 -2.9515807275644015e+00 6.9435993833683440e-01 1 1 0
121 41 1 -1.0540000000000000e+00 -2.0724063537685403e+01 8.0361086891170164e+00 4.7584624328205187e+00 0 0 0
350 117 2 5.2700000000000002e-01 -1.6641173863748591e+01 -1.1429074308050282e+00 -3.6741345793664077e+00 0 1 1
154 52 1 -1.0540000000000000e+00 -1.8755447704894237e+01 -1.8356746955666896e+00 -4.0707298350005390e+00 0 1 0
155 52 2 5.2700000000000002e-01 -1.8786071768778694e+01 -2.2438909197548647e+00 -4.9359892513270704e+00 0 1 0
257 86 2 5.2700000000000002e-01 -2.1163621670320605e+01 -3.1254767410543964e+00 3.0523616143504935e+00 0 0 1
41 14 2 5.2700000000000002e-01 -1.4313349468306162e+01 -5.8747775428216267e+00 -7.4910663977641478e+00 0 0 1
1312 438 1 -1.0540000000000000e+00 -2.0903968244669535e+01 -2.5763906664236584e+00 -1.5486142923585078e-01 1 1 0
168 56 2 5.2700000000000002e-01 -1.7523502874391554e+01 -5.1860620509428426e+00 -4.8079970680589543e+00 0 1 1
166 56 1 -1.0540000000000000e+00 -1.6674180658528790e+01 -5.5850024688240225e+00 -4.9970775689789644e+00 0 1 1
167 56 2 5.2700000000000002e-01 -1.6544429820913990e+01 -5.4403656024874820e+00 -5.9343591807679967e+00 0 1 1
172 58 1 -1.0540000000000000e+00 -2.1339980982127059e+01 -3.0688802457436903e-01 2.1513397132979737e+00 0 0 1
1412 471 2 5.2700000000000002e-01 -2.0954519416226091e+01 1.0485975119760926e+00 -7.5085530831493807e+00 1 0 1
1261 421 1 -1.0540000000000000e+00 -1.9003565991135918e+01 -4.9549208301355705e+00 -3.9875267626654898e+00 1 0 -1
254 85 2 5.2700000000000002e-01 -1.6615752868173466e+01 -6.4428921932459264e+00 -3.3144843922846459e+00 0 1 1
578 193 2 5.2700000000000002e-01 -1.1895433948643888e+01 -7.5467582846727952e+00 -5.0584032276011985e+00 0 0 1
156 52 2 5.2700000000000002e-01 -1.9351515797709400e+01 -1.0895674792411612e+00 -4.1361418954016278e+00 0 1 0
40 14 1 -1.0540000000000000e+00 -1.4402341638374111e+01 -6.7455278470141504e+00 -7.1036050168590066e+00 0 0 1
42 14 2 5.2700000000000002e-01 -1.3803200900835067e+01 -6.7384153589302889e+00 -6.3571248378539469e+00 0 0 1
317 106 2 5.2700000000000002e-01 -1.4862734045662906e+01 -7.9351801729366134e+00 -3.0780261712106549e+00 0 0 0
50 17 2 5.2700000000000002e-01 -1.9548186511451213e+01 -4.1429781036524282e-01 1.2125663287470250e+00 0 0 0
358 120 1 -1.0540000000000000e+00 -1.0915978749877443e+01 -7.7219753813299086e-01 4.0887339681034973e-02 0 0 0
1224 408 2 5.2700000000000002e-01 -1.9373462088351292e+01 7.6142498308487134e+00 -3.8650241824304290e+00 1 -1 1
262 88 1 -1.0540000000000000e+00 -1.1846237990955757e+01 -5.4348558353074932e+00 -7.6647627705335619e-01 0 0 1
56 19 2 5.2700000000000002e-01 -1.1599856589523020e+01 -2.1378371543314527e+00 -2.8612662510955893e+00 0 1 0
1223 408 2 5.2700000000000002e-01 -2.0442486867478546e+01 7.8508594658626958e+00 -4.9105606756941969e+00 1 -1 1
351 117 2 5.2700000000000002e-01 -1.5344920064853078e+01 -3.6082374770238879e-01 -3.6701062868500873e+00 0 1 1
349 117 1 -1.0540000000000000e+00 -1.5914233883269297e+01 -8.8540351023195907e-01 -3.1071232069493275e+00 0 1 1
1262 421 2 5.2700000000000002e-01 -1.9749873027389508e+01 -5.4951346054042922e+00 -4.2472318374825040e+00 1 0 -1
253 85 1 -1.0540000000000000e+00 -1.6684781612659407e+01 -7.0052313684095395e+00 -2.5429526361486365e+00 0 1 1
682 228 1 -1.0540000000000000e+00 -2.1038046909232275e+01 -7.1676383073216057e+00 -1.4357224461335143e+00 0 1 1
89 30 2 5.2700000000000002e-01 -1.0966718066323613e+01 -7.0338335043644369e+00 -1.2409633800039614e+00 0 1 1
467 156 2 5.2700000000000002e-01 -1.7883608129655830e+01 -6.1438118810427103e+00 -1.4324131533267099e+00 0 1 1
684 228 2 5.2700000000000002e-01 -2.0785636503468822e+01 -7.6078936240064801e+00 -2.2473363619308389e+00 0 1 1
429 143 2 5.2700000000000002e-01 -1.9039921398009589e+01 -5.7914426759622550e+00 7.7650672750815986e-01 0 0 0
264 88 2 5.2700000000000002e-01 -1.1629202663621285e+01 -4.6818121432529241e+00 -2.1686434081680162e-01 0 0 1
263 88 2 5.2700000000000002e-01 -1.2696430592918908e+01 -5.7317144733839509e+00 -4.4197724468580368e-01 0 0 1
468 156 2 5.2700000000000002e-01 -1.8253383230694531e+01 -4.7249936582552472e+00 -1.0553618918526322e+00 0 1 1
466 156 1 -1.0540000000000000e+00 -1.8597488614154727e+01 -5.6180681629045859e+00 -1.0715514977221439e+00 0 1 1
1313 438 2 5.2700000000000002e-01 -1.9991366608241801e+01 -2.8326094775012569e+00 -2.8813529915088321e-01 1 1 0
195 65 2 5.2700000000000002e-01 -2.1355921281834352e+01 -2.9268726944731274e+00 -7.8983064404386969e+00 0 0 1
668 223 2 5.2700000000000002e-01 -1.0956012271788557e+01 3.5894364991665704e+00 -4.3828227115932918e+00 0 0 1
123 41 2 5.2700000000000002e-01 -2.1468871417238429e+01 7.9594102787167831e+00 4.1621148046831529e+00 0 0 0
169 57 1 -1.0540000000000000e+00 -1.8312921424617127e+01 3.3627966604971693e+00 -2.6335012930669688e-01 0 -1 0
183 61 2 5.2700000000000002e-01 -2.1220215272141154e+01 7.1026963361171518e+00 -6.2624418149082306e-01 0 -1 1
411 137 2 5.2700000000000002e-01 -1.4117342748889916e+01 7.8971292138463411e-01 7.8485325216866020e+00 0 0 0
410 137 2 5.2700000000000002e-01 -1.2811509884395521e+01 1.7898772164816279e-01 7.3861901857113725e+00 0 0 0
596 199 2 5.2700000000000002e-01 -1.2051200975934961e+01 4.6536844131879853e+00 -6.4627730900900202e+00 0 0 0
203 68 2 5.2700000000000002e-01 -2.0249669495492306e+01 6.5983105314207631e+00 7.8889384249051364e+00 0 1 0
90 30 2 5.2700000000000002e-01 -1.0985069676812321e+01 -8.0685305042308393e+00 -2.3459571850179000e+00 0 1 1
340 114 1 -1.0540000000000000e+00 -1.5937570525570205e+01 5.0795860721368182e+00 -3.6373383353360556e-01 0 0 1
589 197 1 -1.0540000000000000e+00 -1.1924610632878000e+01 2.4656515927863190e+00 5.6496925945057974e-01 0 0 0
1230 410 2 5.2700000000000002e-01 -1.8639041152055871e+01 1.1175648096673463e+00 -2.0677213697733805e+00 1 0 1
728 243 2 5.2700000000000002e-01 -1.3651368782340374e+01 3.2471763408734056e+00 -2.3378121086773627e+00 0 0 1
595 199 1 -1.0540000000000000e+00 -1.1816316018293849e+01 5.5738996618065393e+00 -6.3432520453977599e+00 0 0 0
597 199 2 5.2700000000000002e-01 -1.2626818879557424e+01 5.9928076105138697e+00 -6.0536784415267952e+00 0 0 0
289 97 1 -1.0540000000000000e+00 -1.4822178956680339e+01 1.2408634757278758e+00 -5.0502610771489707e+00 0 0 0
290 97 2 5.2700000000000002e-01 -1.4579525141106391e+01 1.6334581661628054e+00 -4.2116665701110474e+00 0 0 0
134 45 2 5.2700000000000002e-01 -1.8194553895448717e+01 6.1117000215518065e+00 -3.7891850780597700e+00 0 0 0
1422 474 2 5.2700000000000002e-01 -2.0286950404265021e+01 4.1724429052329501e+00 -2.4764044380104577e+00 1 -1 1
135 45 2 5.2700000000000002e-01 -1.7280002981178910e+01 6.9513480429018237e+00 -4.6555178788615521e+00 0 0 0
342 114 2 5.2700000000000002e-01 -1.6560220891279155e+01 5.6700967031603184e+00 6.0361000511404583e-02 0 0 1
286 96 1 -1.0540000000000000e+00 -2.0322169225689169e+01 1.6041402873502957e+00 -2.9369829157156975e+00 0 0 0
171 57 2 5.2700000000000002e-01 -1.7476788398597101e+01 2.9064346445554108e+00 -1.6918393273696619e-01 0 -1 0
341 114 2 5.2700000000000002e-01 -1.6472082517987197e+01 4.5552295683325337e+00 -9.6005526302829924e-01 0 0 1
291 97 2 5.2700000000000002e-01 -1.4104799759906587e+01 6.3951152313560300e-01 -5.2502483428283702e+00 0 0 0
476 159 2 5.2700000000000002e-01 -1.1634547968482917e+01 4.3058240587487742e+00 -2.2003339440080145e+00 0 0 1
255 85 2 5.2700000000000002e-01 -1.7082447428799309e+01 -7.8125056745864860e+00 -2.8691759372280083e+00 0 1 1
21 7 2 5.2700000000000002e-01 -2.0133095157288928e+01 1.4307607873178068e+00 -4.7515962115005506e+00 0 0 1
20 7 2 5.2700000000000002e-01 -1.9193523265927848e+01 9.3787839037218390e-01 -5.8315114800699046e+00 0 0 1
19 7 1 -1.0540000000000000e+00 -2.0111018896498962e+01 9.1770684866360241e-01 -5.5593959624043912e+00 0 0 1
1217 406 2 5.2700000000000002e-01 -1.8536753889382258e+01 4.0182899119378241e+00 -3.7019465699772534e+00 1 0 1
370 124 1 -1.0540000000000000e+00 -1.7568765672590029e+01 1.4040973395989518e+00 -6.6183287857640405e+00 0 0 1
69 23 2 5.2700000000000002e-01 -1.9392707813982774e+01 6.4649117989283624e+00 2.6355359117140509e-01 0 0 1
227 76 2 5.2700000000000002e-01 -1.5943618947252592e+01 3.8090662482312947e+00 -2.9780933066040367e+00 0 0 0
1216 406 1 -1.0540000000000000e+00 -1.9199137992753244e+01 4.5505413709756777e+00 -4.1426370294792623e+00 1 0 1
1218 406 2 5.2700000000000002e-01 -1.9343431722521942e+01 4.1094199458034488e+00 -4.9798011576743981e+00 1 0 1
4 2 1 -1.0540000000000000e+00 -1.9149360440477931e+01 3.5831131712733431e+00 -6.7334637243613047e+00 0 0 1
318 106 2 5.2700000000000002e-01 -1.4029520544782706e+01 7.5485977387034779e+00 -2.0699230160391666e+00 0 -1 0
727 243 1 -1.0540000000000000e+00 -1.4442157079703513e+01 2.8251209321005035e+00 -2.6736321857677039e+00 0 0 1
1263 421 2 5.2700000000000002e-01 -1.8930013469574238e+01 -5.0857739927620438e+00 -3.0421595193160256e+00 1 0 -1
729 243 2 5.2700000000000002e-01 -1.4623207021101855e+01 2.1229145834532090e+00 -2.0488283865416070e+00 0 0 1
372 124 2 5.2700000000000002e-01 -1.6705946578614643e+01 1.5280271276795343e+00 -6.2228086476333804e+00 0 0 1
371 124 2 5.2700000000000002e-01 -1.7946084939683146e+01 2.2831785331011183e+00 -6.6514667092981092e+00 0 0 1
316 106 1 -1.0540000000000000e+00 -1.4048570484787959e+01 7.8156837737722178e+00 -2.9889193639222347e+00 0 -1 0
1488 496 2 5.2700000000000002e-01 -1.6357066297164714e+01 1.0619303518061347e+00 -5.6693457375991763e-01 1 0 1
1241 414 2 5.2700000000000002e-01 -1.4320965891408882e+01 6.4712689664140566e+00 -4.2328135351407887e+00 1 0 1
226 76 1 -1.0540000000000000e+00 -1.6779556330616821e+01 4.2642393454701448e+00 -2.8767081124370977e+00 0 0 0
228 76 2 5.2700000000000002e-01 -1.6572313618653965e+01 5.1850455773831676e+00 -3.0361389389234441e+00 0 0 0
1242 414 2 5.2700000000000002e-01 -1.5034871926132066e+01 6.6584947932304583e+00 -5.5546417408040147e+00 1 0 1
1240 414 1 -1.0540000000000000e+00 -1.4480458285751300e+01 6.0436302593638072e+00 -5.0742049430880680e+00 1 0 1
6 2 2 5.2700000000000002e-01 -1.9278196292955869e+01 4.3088115760060290e+00 -7.3442140679073953e+00 0 0 1
1228 410 1 -1.0540000000000000e+00 -1.8103286159864918e+01 4.8018285204814681e-01 -1.5955318215360217e+00 1 0 1
1229 410 2 5.2700000000000002e-01 -1.7513766654456123e+01 1.2317827942427506e-01 -2.2598106473788073e+00 1 0 1
1465 489 1 -1.0540000000000000e+00 -2.0817237223230940e+01 3.0692499021487265e+00 6.0182205315717923e+00 1 0 -1
477 159 2 5.2700000000000002e-01 -1.2273878670952556e+01 5.1907242530387929e+00 -1.1514519398884637e+00 0 0 1
475 159 1 -1.0540000000000000e+00 -1.2449620293231394e+01 4.7608050516635441e+00 -1.9884324316340489e+00 0 0 1
133 45 1 -1.0540000000000000e+00 -1.7598530940616953e+01 6.8600340548711713e+00 -3.7574904640565583e+00 0 0 0
617 206 2 5.2700000000000002e-01 -1.2391395822330100e+01 -1.8522068404009033e+00 5.9494091874037718e+00 0 0 -1
709 237 1 -1.0540000000000000e+00 -1.1532162371932520e+01 2.9173698496250928e+00 -6.7620268107550787e+00 0 0 1
1420 474 1 -1.0540000000000000e+00 -2.0520743079106147e+01 3.9948892158694740e+00 -1.5653241034569136e+00 1 -1 1
716 239 2 5.2700000000000002e-01 -2.1452256196101093e+01 -6.1263293466821676e+00 1.9067114015547055e+00 0 0 0
288 96 2 5.2700000000000002e-01 -2.0920338055240105e+01 8.8989677646105214e-01 -2.7172049368611937e+00 0 0 0
5 2 2 5.2700000000000002e-01 -2.0025722340543052e+01 3.2209349050018350e+00 -6.6028134793785460e+00 0 0 1
710 237 2 5.2700000000000002e-01 -1.2058316674601326e+01 2.3676664065962409e+00 -7.3427501680677798e+00 0 0 1
240 80 2 5.2700000000000002e-01 -1.4367853167227643e+01 6.2387648492421945e+00 -3.4418482402062534e-01 0 0 0
158 53 2 5.2700000000000002e-01 -1.8691819703052921e+01 3.0113653031177652e+00 3.2105481935177664e+00 0 -1 1
356 119 2 5.2700000000000002e-01 -1.2464026253109646e+01 2.2172971428426447e+00 6.1801599701093544e+00 0 -1 -1
357 119 2 5.2700000000000002e-01 -1.1537964341812026e+01 3.3409288926177094e+00 5.7656641717321193e+00 0 -1 -1
98 33 2 5.2700000000000002e-01 -1.4598240374865924e+01 4.6330135056408643e+00 -6.6128862191831210e+00 0 0 1
99 33 2 5.2700000000000002e-01 -1.4540362591377418e+01 3.1776163259440224e+00 -6.2000742173242163e+00 0 0 1
683 228 2 5.2700000000000002e-01 -2.0265155619768901e+01 -6.6604444060569037e+00 -1.1874374647981076e+00 0 1 1
117 39 2 5.2700000000000002e-01 -1.6203824160526729e+01 -7.8321507529278245e+00 -6.7062153165831448e+00 0 1 1
115 39 1 -1.0540000000000000e+00 -1.6464078370784115e+01 7.5619728788463387e+00 -6.3564605252086706e+00 0 0 1
238 80 1 -1.0540000000000000e+00 -1.3879832967272860e+01 7.0622039166701978e+00 -3.5026119482296902e-01 0 0 0
515 172 2 5.2700000000000002e-01 -1.1808316697239462e+01 5.2217014959231314e+00 1.6780869522845201e+00 0 -1 0
296 99 2 5.2700000000000002e-01 -1.1314818169033014e+01 -5.4642894716543555e+00 5.6854912612595498e+00 0 0 -1
239 80 2 5.2700000000000002e-01 -1.2967950694446207e+01 6.8017021215030535e+00 -2.2041020008140233e-01 0 0 0
204 68 2 5.2700000000000002e-01 -1.9736678099707056e+01 5.4822506975416445e+00 7.0039552215208385e+00 0 1 0
202 68 1 -1.0540000000000000e+00 -1.9610574584402045e+01 5.8861913478411694e+00 7.8625483775787401e+00 0 1 0
1300 434 1 -1.0540000000000000e+00 -1.7771423123459520e+01 -2.9374002729527993e+00 6.4273035995742251e+00 1 0 0
531 177 2 5.2700000000000002e-01 -1.6252642568497986e+01 -4.8980319107027581e+00 7.7116413728516093e+00 0 1 0
1302 434 2 5.2700000000000002e-01 -1.7573010133671122e+01 -3.2198201253261036e+00 7.3201210351169603e+00 1 0 0
529 177 1 -1.0540000000000000e+00 -1.6463365970993369e+01 -4.4169921967389634e+00 -7.7343704168940892e+00 0 1 1
1301 434 2 5.2700000000000002e-01 -1.8171180446024906e+01 -2.0739813854240063e+00 6.5319643757137857e+00 1 0 0
243 81 2 5.2700000000000002e-01 -1.2132977500062973e+01 -5.8582434564462993e+00 2.4431824573977394e+00 0 1 0
1411 471 1 -1.0540000000000000e+00 -2.1111257528088476e+01 7.4703397753451561e-01 7.8428959832377778e+00 1 0 0
1446 482 2 5.2700000000000002e-01 -2.1642543010491085e+01 -5.3629764187586204e+00 6.3676696308491039e+00 1 1 0
1444 482 1 -1.0540000000000000e+00 -2.0820969567460594e+01 -4.8859372870557642e+00 6.4847271674103144e+00 1 1 0
360 120 2 5.2700000000000002e-01 -1.1773992235606530e+01 -9.7007995683132542e-01 4.1626615889247987e-01 0 0 0
734 245 2 5.2700000000000002e-01 -1.6932182629532420e+01 -6.4854345427667450e+00 6.0532444425345329e+00 0 0 -1
186 62 2 5.2700000000000002e-01 -1.6458443295678030e+01 5.7842192261890606e+00 3.4594303701608471e+00 0 0 0
72 24 2 5.2700000000000002e-01 -1.9873266007442766e+01 -1.9361271729140785e+00 5.1445195532643559e+00 0 1 0
170 57 2 5.2700000000000002e-01 -1.8279917008097630e+01 4.0614764393066327e+00 3.9010956688477805e-01 0 -1 0
311 104 2 5.2700000000000002e-01 -1.1319686914584040e+01 -8.0638358044035616e+00 3.9231081906582883e+00 0 0 0
67 23 1 -1.0540000000000000e+00 -1.8568045620439570e+01 6.7616927029472347e+00 6.4839955452613829e-01 0 0 1
1445 482 2 5.2700000000000002e-01 -2.0148859723405881e+01 -5.5671590901640311e+00 6.5061059287875977e+00 1 1 0
232 78 1 -1.0540000000000000e+00 -1.9277632258120359e+01 -5.9216465437951449e-01 6.0956611765705944e+00 0 0 -1
70 24 1 -1.0540000000000000e+00 -2.0134397190265510e+01 -2.6832345167119627e+00 4.6061011443924684e+00 0 1 0
471 157 2 5.2700000000000002e-01 -1.1860728149881449e+01 -7.7097463795102721e+00 6.4835795500463593e+00 0 0 0
735 245 2 5.2700000000000002e-01 -1.5639751650868988e+01 -6.1527973577091490e+00 5.3384574890473999e+00 0 0 -1
234 78 2 5.2700000000000002e-01 -1.9169828803049718e+01 7.6183370481707868e-02 5.4189462097337149e+00 0 0 -1
733 245 1 -1.0540000000000000e+00 -1.6010513884845093e+01 -6.2811895046065187e+00 6.2115572309229083e+00 0 0 -1
322 108 1 -1.0540000000000000e+00 -1.5214366328359311e+01 -1.9244077308720575e+00 -7.8876624236962964e+00 0 0 1
35 12 2 5.2700000000000002e-01 -1.5885105065186693e+01 -5.7399013813184254e+00 3.3477651249939271e+00 0 0 0
36 12 2 5.2700000000000002e-01 -1.4661838244744715e+01 -6.5815853734780116e+00 3.0525849054881160e+00 0 0 0
34 12 1 -1.0540000000000000e+00 -1.4963471408707544e+01 -5.8448303781619400e+00 3.5840558079128400e+00 0 0 0
320 107 2 5.2700000000000002e-01 -1.5971201819702113e+01 -2.6478922315641285e+00 4.4544712737087373e+00 0 1 -1
427 143 1 -1.0540000000000000e+00 -1.9542776867116789e+01 -5.6333486843695759e+00 1.5755028001891667e+00 0 0 0
428 143 2 5.2700000000000002e-01 -1.9199665719586207e+01 -6.2680465669076213e+00 2.2045389667932138e+00 0 0 0
1222 408 1 -1.0540000000000000e+00 -2.0243673350766247e+01 7.9944074969292398e+00 -3.9852932814060944e+00 1 -1 1
319 107 1 -1.0540000000000000e+00 -1.5790772175924857e+01 -1.7158334058599740e+00 4.5767957107766382e+00 0 1 -1
241 81 1 -1.0540000000000000e+00 -1.1848303952772969e+01 -6.7715506388485736e+00 2.4760900870076838e+00 0 1 0
233 78 2 5.2700000000000002e-01 -1.9865951066025950e+01 -1.9240090672767085e-01 6.7362249645513277e+00 0 0 -1
71 24 2 5.2700000000000002e-01 -2.0411965063680359e+01 -3.3479694323649900e+00 5.2364471632617189e+00 0 1 0
653 218 2 5.2700000000000002e-01 -1.2144399163710155e+01 -3.8227570321403785e+00 3.3057934799139002e+00 0 0 -1
652 218 1 -1.0540000000000000e+00 -1.2523490465725512e+01 -4.0178245699488775e+00 2.4487685344477814e+00 0 0 -1
761 254 2 5.2700000000000002e-01 -1.4187781873578967e+01 -1.6929081682858209e+00 1.5279677064167458e+00 0 0 0
1333 445 1 -1.0540000000000000e+00 -2.1637413082937083e+01 6.4708206665331769e+00 -6.0687841492400683e+00 1 -1 1
760 254 1 -1.0540000000000000e+00 -1.3439493539034483e+01 -1.9288656919776859e+00 9.7966097897929849e-01 0 0 0
762 254 2 5.2700000000000002e-01 -1.2984294948147696e+01 -2.6098349430643530e+00 1.4749656804586433e+00 0 0 0
252 84 2 5.2700000000000002e-01 -1.8665893728652662e+01 -7.7780612400261111e+00 7.2570758011250032e+00 0 0 0
250 84 1 -1.0540000000000000e+00 -1.8598114456941978e+01 -6.8772894875661850e+00 6.9404242257168676e+00 0 0 0
251 84 2 5.2700000000000002e-01 -1.8114594985677556e+01 -6.4174001060160855e+00 7.6266911972678813e+00 0 0 0
321 107 2 5.2700000000000002e-01 -1.6645228336497802e+01 -1.3290541795590363e+00 4.7679977659650756e+00 0 1 -1
654 218 2 5.2700000000000002e-01 -1.3330471662167801e+01 -4.4933913448972511e+00 2.6459242124799314e+00 0 0 -1
1403 468 2 5.2700000000000002e-01 -1.8349333190488125e+01 -3.8716114959906580e+00 4.2145881942829053e+00 1 0 -1
382 128 1 -1.0540000000000000e+00 -1.2923842489278702e+01 4.4829835740848125e+00 3.3126562295648867e+00 0 0 0
102 34 2 5.2700000000000002e-01 -1.4200473159390212e+01 8.0329271817388399e+00 1.4756364942001010e+00 0 -1 0
43 15 1 -1.0540000000000000e+00 -1.6483607899928327e+01 -9.9743023712405066e-01 1.3327101173209677e+00 0 1 0
45 15 2 5.2700000000000002e-01 -1.6494853930384846e+01 -1.9439409357801454e+00 1.4749886554670777e+00 0 1 0
100 34 1 -1.0540000000000000e+00 -1.4140863851023820e+01 7.8062416453626113e+00 2.4037056466105966e+00 0 -1 0
1404 468 2 5.2700000000000002e-01 -1.8586399296091471e+01 -4.2570096866359659e+00 2.7698692123327167e+00 1 0 -1
1402 468 1 -1.0540000000000000e+00 -1.7892227326333511e+01 -4.0300551784141998e+00 3.3886330072487230e+00 1 0 -1
1259 420 2 5.2700000000000002e-01 -2.0045800916988298e+01 6.2048006643252585e+00 4.7965463972057520e+00 1 0 0
242 81 2 5.2700000000000002e-01 -1.2615121650886557e+01 -7.2507772447153949e+00 2.7900720170691571e+00 0 1 0
213 71 2 5.2700000000000002e-01 -1.5641961501478557e+01 7.9783150297565282e+00 6.7948023627986487e+00 0 -1 -1
323 108 2 5.2700000000000002e-01 -1.4469799616813130e+01 -1.6157499155276920e+00 -7.3713264975964998e+00 0 0 1
44 15 2 5.2700000000000002e-01 -1.7407267737415005e+01 -7.5132952963122257e-01 1.2823056545522515e+00 0 1 0
225 75 2 5.2700000000000002e-01 -1.3255997302838045e+01 -3.7630387163429564e+00 -7.1085241237055374e+00 0 0 1
470 157 2 5.2700000000000002e-01 -1.2311454362615997e+01 -6.6372580298425143e+00 7.4523725518745518e+00 0 0 0
469 157 1 -1.0540000000000000e+00 -1.1747316294805705e+01 -6.7826024138770897e+00 6.6928497549084369e+00 0 0 0
1397 466 2 5.2700000000000002e-01 -1.9197017056390486e+01 6.5939839562980929e-01 3.2263085474396167e+00 1 0 0
223 75 1 -1.0540000000000000e+00 -1.3254957707458439e+01 -4.3296590224378377e+00 -7.8800116835553142e+00 0 0 1
224 75 2 5.2700000000000002e-01 -1.3349875036996369e+01 -3.7288854828102549e+00 7.6271499888187808e+00 0 0 0
568 190 1 -1.0540000000000000e+00 -1.1838011184213466e+01 -1.4147337494577172e+00 4.1133267625411207e+00 0 0 1
616 206 1 -1.0540000000000000e+00 -1.2582886083196433e+01 -1.6801551279726405e+00 6.8713541584274545e+00 0 0 -1
116 39 2 5.2700000000000002e-01 -1.6558642457703030e+01 7.0043333746228864e+00 -7.1286959828508785e+00 0 0 1
590 197 2 5.2700000000000002e-01 -1.1419278377138161e+01 2.2754549874760190e+00 -2.2542098856654036e-01 0 0 0
1413 471 2 5.2700000000000002e-01 -2.0853717760545077e+01 1.4862215068595681e+00 7.2919628377895744e+00 1 0 0
157 53 1 -1.0540000000000000e+00 -1.8581542646701049e+01 3.9040908531264940e+00 2.8832380053873496e+00 0 -1 1
122 41 2 5.2700000000000002e-01 -2.1103671368024667e+01 -7.8893657840251237e+00 5.5765245027387316e+00 0 1 0
1467 489 2 5.2700000000000002e-01 -2.1630722334116662e+01 3.4058145359762566e+00 6.3940109129726341e+00 1 0 -1
1258 420 1 -1.0540000000000000e+00 -1.9837757588925779e+01 5.2885821204448540e+00 4.9796130144974367e+00 1 0 0
48 16 2 5.2700000000000002e-01 -1.4887650129853323e+01 3.9575055156694283e+00 2.4711603523571544e+00 0 0 0
249 83 2 5.2700000000000002e-01 -1.5827312839556695e+01 3.9513498625053955e-01 4.0865383496845080e+00 0 0 -1
68 23 2 5.2700000000000002e-01 -1.8818595374482147e+01 7.4823212328085020e+00 1.2264751533354126e+00 0 0 1
247 83 1 -1.0540000000000000e+00 -1.5902072316442734e+01 1.3420559321998127e+00 4.2048755778933167e+00 0 0 -1
591 197 2 5.2700000000000002e-01 -1.2095497213570585e+01 3.4064094016267976e+00 5.1997465304677881e-01 0 0 0
310 104 1 -1.0540000000000000e+00 -1.1471752155173380e+01 7.4539728014441540e+00 4.5251376363622295e+00 0 -1 0
211 71 1 -1.0540000000000000e+00 -1.5988680317810196e+01 7.0929217424746298e+00 6.6847270163629879e+00 0 -1 -1
248 83 2 5.2700000000000002e-01 -1.5860893533950385e+01 1.4694569741143155e+00 5.1526762577882774e+00 0 0 -1
1475 492 2 5.2700000000000002e-01 -1.9147384225651955e+01 -7.9106160261202110e+00 3.7722642899028571e+00 1 1 0
46 16 1 -1.0540000000000000e+00 -1.5754527316867289e+01 3.8315436990567999e+00 2.8570487763252181e+00 0 0 0
1260 420 2 5.2700000000000002e-01 -1.9422500101356867e+01 4.9718643301328314e+00 4.1774261633402929e+00 1 0 0
101 34 2 5.2700000000000002e-01 -1.4733229848225955e+01 7.0615226270713549e+00 2.5073768168977288e+00 0 -1 0
1398 466 2 5.2700000000000002e-01 -1.7829784616870739e+01 1.0581759388805363e+00 3.7397256969500461e+00 1 0 0
514 172 1 -1.0540000000000000e+00 -1.1584301757838471e+01 5.4583311744579230e+00 7.7804490521822522e-01 0 -1 0
384 128 2 5.2700000000000002e-01 -1.3335970363142707e+01 5.2084816314775431e+00 3.7817567260853568e+00 0 0 0
281 94 2 5.2700000000000002e-01 -1.5861785651336291e+01 2.3056994781756899e+00 7.2665843942543962e+00 0 0 0
746 249 2 5.2700000000000002e-01 -1.3039696887135831e+01 4.9932676172579633e+00 6.0647770181470442e+00 0 -1 0
305 102 2 5.2700000000000002e-01 -1.7973691759024309e+01 -5.5491129806454520e-01 -6.7253603144493770e+00 0 1 1
355 119 1 -1.0540000000000000e+00 -1.2455526373231624e+01 3.0691748839912378e+00 5.7437154171600557e+00 0 -1 -1
97 33 1 -1.0540000000000000e+00 -1.4649840883918895e+01 3.7439946195861609e+00 -6.9639339917286698e+00 0 0 1
47 16 2 5.2700000000000002e-01 -1.5703331226826910e+01 2.9788906002150721e+00 3.2890377682818865e+00 0 0 0
1486 496 1 -1.0540000000000000e+00 -1.5578323917671675e+01 1.5869525107542604e+00 -3.8209855461186049e-01 1 0 1
1487 496 2 5.2700000000000002e-01 -1.5462357714028961e+01 1.5188434430407014e+00 5.6561705398601880e-01 1 0 1
212 71 2 5.2700000000000002e-01 -1.5220171377818618e+01 6.5252614393639696e+00 6.7431012031162645e+00 0 -1 -1
185 62 2 5.2700000000000002e-01 -1.6206895448251295e+01 6.6096560206516557e+00 4.7033447127443893e+00 0 0 0
324 108 2 5.2700000000000002e-01 -1.5045458823579022e+01 -1.5977423189954498e+00 7.4748809231082429e+00 0 0 0
383 128 2 5.2700000000000002e-01 -1.2781507764901642e+01 3.8141215892171445e+00 3.9824451395647635e+00 0 0 0
182 61 2 5.2700000000000002e-01 -2.0753412730328186e+01 5.6764368816655484e+00 -8.2580741901666155e-01 0 -1 1
1474 492 1 -1.0540000000000000e+00 -1.8618845493215403e+01 -7.7800823351805874e+00 2.9849522769165997e+00 1 1 0
1476 492 2 5.2700000000000002e-01 -1.7899095489623559e+01 7.8413074947592776e+00 3.0727499462137899e+00 1 0 0
159 53 2 5.2700000000000002e-01 -1.7633769459682945e+01 4.0190141449079633e+00 2.8141668265184077e+00 0 -1 1
1396 466 1 -1.0540000000000000e+00 -1.8758608987223596e+01 1.0715929235035198e+00 3.9707182091935778e+00 1 0 0
304 102 1 -1.0540000000000000e+00 -1.7965808913456659e+01 -1.5082978722070433e+00 -6.8104701313002751e+00 0 1 1
306 102 2 5.2700000000000002e-01 -1.7102521513609219e+01 -1.7098815424544291e+00 -7.1715114963392548e+00 0 1 1
409 137 1 -1.0540000000000000e+00 -1.3211582910447945e+01 1.0126209052517972e+00 7.6336765103795710e+00 0 0 0
745 249 1 -1.0540000000000000e+00 -1.3373081398349635e+01 5.8566294496394669e+00 5.8204137884568361e+00 0 -1 0
747 249 2 5.2700000000000002e-01 -1.2703675015357446e+01 6.2164859372107255e+00 5.2384765504652595e+00 0 -1 0
282 94 2 5.2700000000000002e-01 -1.6912944678183585e+01 1.3410918976051818e+00 7.7730841891192490e+00 0 0 0
184 62 1 -1.0540000000000000e+00 -1.6697220441374075e+01 6.6096296466949660e+00 3.8812539196558138e+00 0 0 0
570 190 2 5.2700000000000002e-01 -1.1682296823454964e+01 -6.3692382191693930e-01 3.5775872927396382e+00 0 0 1
280 94 1 -1.0540000000000000e+00 -1.6163880366316903e+01 1.4015258230355592e+00 7.1802079188154799e+00 0 0 0
295 99 1 -1.0540000000000000e+00 -1.1134817236355911e+01 -4.6936526926804802e+00 5.1470018352965052e+00 0 0 -1
287 96 2 5.2700000000000002e-01 -2.0631748128656412e+01 2.3452645662842961e+00 -2.4162640962877049e+00 0 0 0
1466 489 2 5.2700000000000002e-01 -2.0537940926602808e+01 3.7479243076110684e+00 5.4036901987434458e+00 1 0 -1
618 206 2 5.2700000000000002e-01 -1.1735351343148810e+01 -1.7532804434610609e+00 7.3102049492189067e+00 0 0 -1
181 61 1 -1.0540000000000000e+00 -2.1148196324086040e+01 6.2600529187071796e+00 -1.7789478768935130e-01 0 -1 1
669 223 2 5.2700000000000002e-01 -1.1114883878537619e+01 5.0475670714381202e+00 -4.0079100157550078e+00 0 0 1