LAMMPS data file via write_data, version 15 Sep 2022, timestep = 50000

1086 atoms
7 atom types
724 bonds
6 bond types
362 angles
9 angle types
0 dihedrals
14 dihedral types

-21.64201909795004 21.64201909795004 xlo xhi
-8.115757161731125 8.115757161731125 ylo yhi
-8.115757161731125 8.115757161731125 zlo zhi

Masses

1 15.9994
2 1.008
3 12.011
4 15.9994
5 1.008
6 15.9994
7 1.008

Pair Coeffs # lj/cut/tip4p/long

1 0.185199 3.1589
2 0 0
3 0.056 3.58141
4 0.1 2.93997
5 0.035 2.38761
6 0.192 3.14487
7 0.046 0.40001

Bond Coeffs # harmonic

1 0 0.9572
2 222.35 1.53
3 308.79 1.1111
4 359.76 1.1415
5 427.715 1.142
6 544.635 0.96

Angle Coeffs # charmm

1 0 104.52 0 0
2 50 109 0 0
3 26.5 110.1 22.53 2.179
4 45 111.5 0 0
5 13.0258 109.4 0 0
6 35.5 109 5.4 1.802
7 55 108.89 0 0
8 75.7 110.1 0 0
9 95 109.7 0 0

Dihedral Coeffs # charmm

1 0.57 1 0 0
2 0.29 2 0 0
3 0.43 3 0 0
4 0.59 1 180 0
5 1.16 2 0 0
6 0.12 1 0 0
7 0.42 2 0 0
8 0.29 3 0 0
9 2.87 1 180 0
10 0.03 2 0 0
11 0.23 3 0 0
12 1.36 1 180 0
13 0.16 2 0 0
14 1.01 3 0 0

Atoms # full

63 21 2 0.527 -19.15144505390238 0.782970843421781 -4.701907619151613 0 1 0
997 333 1 -1.054 -0.14147418421191205 -1.1184063586816597 -3.518304575790669 0 0 1
171 57 2 0.527 -20.688538392257207 -2.0308380705064373 -3.7460253606170966 0 0 -1
169 57 1 -1.054 -20.651205444826918 -2.6957044752820654 -3.0584791403198563 0 0 -1
693 231 2 0.527 -17.988622410034424 -0.5081128764718343 -6.431147275350857 0 0 0
691 231 1 -1.054 -18.05438168366326 -1.3393633025950695 -6.901103947331976 0 0 0
692 231 2 0.527 -17.981150251459347 -2.0070220214482735 -6.219173001350147 0 0 0
185 62 2 0.527 -19.54423820197094 -3.3329325334271687 -4.418426147558408 0 0 -1
276 92 2 0.527 -18.407955222923206 -7.067353257258115 -3.4157942590279644 0 0 0
186 62 2 0.527 -18.1147195608843 -3.7284057721914 -4.721403094464956 0 0 -1
1409 470 2 0.527 -17.144086988380216 -6.709169035836205 -6.750737128777704 1 1 0
184 62 1 -1.054 -18.881071556679863 -3.304887394458711 -5.108052381693969 0 0 -1
61 21 1 -1.054 -18.310007428637988 0.9188455951163785 -5.137432176619512 0 1 0
1284 428 2 0.527 -18.942423946530873 -4.955333409723345 -5.963975446913163 1 0 1
1282 428 1 -1.054 -18.711919689780128 -5.704816396438699 -6.512886998958808 1 0 1
1429 477 1 -1.054 -0.5200210102441574 3.4911362781465254 -3.5882613181856255 0 -1 0
1234 412 1 -1.054 -20.196219101904052 -4.769627074297032 -0.8912654690706407 1 0 0
75 25 2 0.527 -19.212973616577372 -7.6515445776138185 -5.577836226795794 0 0 0
274 92 1 -1.054 -18.24989705142671 -6.366908827505408 -2.7828993644667337 0 0 0
597 199 2 0.527 -17.411159509816468 -4.813684146386503 -2.8912229806204675 0 0 0
595 199 1 -1.054 -16.91623284134443 -3.9944148405200286 -2.8937252406488643 0 0 0
730 244 1 -1.054 -17.515830925142687 -0.5152775670978977 -2.608409442621677 0 0 0
731 244 2 0.527 -17.71992455563054 -0.024679494272463742 -3.4045376827105107 0 0 0
596 199 2 0.527 -16.008618403599538 -4.261901168937827 -2.749337095674883 0 0 0
732 244 2 0.527 -17.574255668729368 -1.4338669717888246 -2.8709752864668507 0 0 0
551 184 2 0.527 -13.707061032813407 -3.817566667579242 -6.99780536255418 0 0 1
247 83 1 -1.054 -21.240642081001166 -1.3071163343435126 7.654362038824983 0 0 -1
660 220 2 0.527 -19.82391638241254 -0.4412195956270333 -1.0117311520969974 0 0 0
1190 397 2 0.527 -15.445714667319923 -7.963020213311308 -5.213124011190978 1 1 0
1189 397 1 -1.054 -15.023683675057743 7.796742902485537 -4.495139750570473 1 0 0
666 222 2 0.527 -3.561429719183387 7.893915859426087 -7.583459526046334 0 0 1
568 190 1 -1.054 -14.993792295940512 -6.652177715129672 -2.1701508485868866 0 0 -1
570 190 2 0.527 -15.204545419631337 -7.269794109496237 -2.870360783317765 0 0 -1
569 190 2 0.527 -15.536516389817038 -6.931117165593923 -1.4327200471907515 0 0 -1
638 213 2 0.527 -20.548909433620853 -0.7293684845938868 -5.823901409283697 0 -1 -1
637 213 1 -1.054 -21.057627909136592 -0.7673876753792745 -5.014011987003432 0 -1 -1
1474 492 1 -1.054 -0.48817862616754226 -1.718416068892692 -0.8455635512174924 0 0 1
659 220 2 0.527 -20.777550173599547 -1.6118017427074793 -1.1214476819676698 0 0 0
1283 428 2 0.527 -19.149581933544546 -5.534989715629408 -7.347016196598934 1 0 1
250 84 1 -1.054 -2.638005390914607 6.071568898000809 7.940238981039446 0 -1 -1
658 220 1 -1.054 -20.22350251251576 -1.1427586594511716 -0.49759621419311717 0 0 0
1223 408 2 0.527 -14.728948254980402 1.0505669419997528 -1.2267909383284437 1 0 0
262 88 1 -1.054 -4.575066245186768 6.708899146810511 5.729023552352865 0 0 0
1315 439 1 -1.054 -2.520608535434846 2.916848607802274 6.482477668946759 1 0 0
1224 408 2 0.527 -15.45543347633367 -0.06860161889583516 -1.9419123472883832 1 0 0
1222 408 1 -1.054 -14.666376984370885 0.11803706699222616 -1.433270322604197 1 0 0
332 111 2 0.527 -12.98750158458346 -1.0512844625155475 -2.9463718823738105 0 0 0
1191 397 2 0.527 -14.162429839079644 7.558404198129171 -4.838064336053113 1 0 0
331 111 1 -1.054 -12.642079287749212 -1.2934314274351992 -3.8055628162184973 0 0 0
78 26 2 0.527 -11.812974331038324 -2.780945900899022 -8.010888569651893 0 0 0
76 26 1 -1.054 -11.052398453490843 -2.2668395667772794 -7.74000139033243 0 0 0
77 26 2 0.527 -10.302841809608264 -2.8343978781054755 -7.919454046327105 0 0 0
57 19 2 0.527 -13.253680985644104 -6.137121888065142 -2.409453457642381 0 0 0
56 19 2 0.527 -12.641818188361006 -5.755646356892875 -3.7405499992305806 0 0 0
55 19 1 -1.054 -12.41703665894315 -5.933015227020584 -2.827218506330798 0 0 0
284 95 2 0.527 -11.9015613800254 -3.890979553993332 -5.706032586933423 0 1 0
285 95 2 0.527 -12.539963367159295 -3.042519684613846 -4.6270162052518184 0 1 0
283 95 1 -1.054 -12.709260945445811 -3.7881244415265023 -5.202839740431838 0 1 0
756 252 2 0.527 -8.999279524278041 -4.661820204663986 8.095404674283945 0 1 -1
754 252 1 -1.054 -9.216206676433456 -4.215609679580445 -7.3175745960861285 0 1 0
755 252 2 0.527 -9.119909013174592 -4.889094226183814 -6.644294423890979 0 1 0
747 249 2 0.527 -11.536893667908638 0.138005101429032 0.016435427612691456 0 0 -1
67 23 1 -1.054 -10.821694663121923 -1.854115260651727 -0.2817092934272063 0 0 0
746 249 2 0.527 -12.841491293218663 0.8370050038026644 -0.30159233914028416 0 0 -1
419 140 2 0.527 -9.27248688865223 0.031923870446254554 -6.281447242929724 0 0 1
705 235 2 0.527 -10.645462558319606 -1.9258348925041027 -2.0261343954597226 0 0 0
420 140 2 0.527 -9.965307039955997 -0.5002225209197215 -7.517787853790276 0 0 1
418 140 1 -1.054 -9.152713478421186 -0.08892147170973352 -7.223366334568307 0 0 1
847 283 1 -1.054 -9.748213415629047 -4.885236095770507 -2.6868097847688093 0 0 0
849 283 2 0.527 -10.004230119137125 -3.983910650884729 -2.8823315488825347 0 0 0
433 145 1 -1.054 -5.018700215929265 -1.5259794659059311 -5.038623060257139 0 0 0
434 145 2 0.527 -5.434404150750993 -1.5422049937684639 -4.176597764953018 0 0 0
435 145 2 0.527 -5.736487402485372 -1.6750012370740972 -5.654037369391613 0 0 0
848 283 2 0.527 -10.575686318325651 -5.3631563272961476 -2.6316591560292366 0 0 0
703 235 1 -1.054 -10.209689849551424 -2.0041117073149577 -2.874742534482965 0 0 0
620 207 2 0.527 -11.311637573106845 -7.550752078893238 -2.9171237892685395 0 1 0
203 68 2 0.527 -8.639940818215171 -6.908899794273425 -5.306483316980708 0 1 0
202 68 1 -1.054 -8.980877483323713 -6.018150615236385 -5.387037050950475 0 1 0
204 68 2 0.527 -9.439532137568639 -5.861194227254107 -4.5617120193820755 0 1 0
704 235 2 0.527 -10.88934657619674 -1.7909161902970103 -3.5140978244191254 0 0 0
69 23 2 0.527 -11.436375605389552 -2.585777363426928 -0.3364691450524129 0 0 0
1395 465 2 0.527 -12.362994060671925 -4.536503862111652 -1.566904635387763 0 0 0
1030 344 1 -1.054 -6.979380051835054 -1.7901740592922541 -6.918923343118752 0 1 0
1007 336 2 0.527 -8.872419970639939 7.938605257072336 -2.998298174893293 0 0 0
1006 336 1 -1.054 -7.994618884401326 7.792957121002528 -2.6455762587644216 0 0 0
687 229 2 0.527 -6.581738123796814 1.3809237680433366 6.8165671066526325 0 0 -1
1201 401 1 -1.054 -13.347671060217083 -8.065847074291042 -6.92129092270694 0 1 0
333 111 2 0.527 -12.567408179024708 -0.4636308687671491 -4.276748565913258 0 0 0
1202 401 2 0.527 -12.423920371084096 -7.841865107675914 -7.033885820835071 0 1 0
869 290 2 0.527 -6.809745158320213 7.862548034358365 -5.202029728548874 0 -1 0
745 249 1 -1.054 -11.904827905098996 0.9977388322459628 -0.18763099088787616 0 0 -1
1032 344 2 0.527 -7.31302256820136 -2.6727241307510505 -6.757836719902089 0 1 0
1393 465 1 -1.054 -12.458641948804486 -3.9692623815006547 -0.8018886473095881 0 0 0
68 23 2 0.527 -9.972897693393573 -2.265448826432155 -0.11889256265327663 0 0 0
1031 344 2 0.527 -7.760106267656997 -1.2688140114420206 -7.105500570565557 0 1 0
1008 336 2 0.527 -7.649136693651938 -7.559385126160165 -2.4911116009447873 0 1 0
1034 345 2 0.527 -7.2993517442682645 -5.833829391833857 7.128418048565594 1 1 -1
1155 385 2 0.527 -7.905845881054878 -5.292520552566298 -2.498389213243576 0 0 0
1154 385 2 0.527 -6.984791193652926 -6.010604079043437 -3.4615776264339013 0 0 0
1153 385 1 -1.054 -7.1385711235377975 -5.863971164239464 -2.5282977261059214 0 0 0
675 225 2 0.527 -5.928654407058271 -0.5982806060879922 -7.933718742115316 0 0 0
1419 473 2 0.527 -2.9369940880416827 -2.9948853651605534 -3.3196604111555095 0 0 0
520 174 1 -1.054 -3.303314505575724 -5.736558881292886 -4.523960700083499 0 0 0
521 174 2 0.527 -3.1225542370987966 -4.810775844916725 -4.3614418799532855 0 0 0
522 174 2 0.527 -2.910956036386761 -6.192031122874404 -3.7791380723167434 0 0 0
1418 473 2 0.527 -3.7523557111658974 -2.4043366634724563 -4.4502157145028 0 0 0
1456 486 1 -1.054 -1.5674296799783392 -2.304345421193105 -6.7238041065899665 0 0 0
630 210 2 0.527 -4.167477654137585 -4.828481790995973 -1.3827188608948315 0 0 -1
673 225 1 -1.054 -5.651661620889563 0.09491397038074112 7.698698830060563 0 0 -1
674 225 2 0.527 -4.847858380001814 0.4405073891279212 8.086805025441613 0 0 -1
1417 473 1 -1.054 -3.001971099837615 -2.971920333360565 -4.274339148434798 0 0 0
1458 486 2 0.527 -2.1885511616231526 -2.715665833244273 -6.122817834375102 0 0 0
629 210 2 0.527 -5.245424704381332 -5.6832924859112826 -2.0144199258275357 0 0 -1
1157 386 2 0.527 -0.24080052900572468 -5.235433947381436 7.406153122967394 0 0 0
192 64 2 0.527 -5.029837549457959 -6.419693501851243 -4.698081872944043 0 1 0
53 18 2 0.527 -2.562124070086856 -7.487007462577414 -1.9368491663516814 0 1 0
388 130 1 -1.054 -1.4129710657268326 -5.151065413858364 -6.9518112056647245 0 0 1
208 70 1 -1.054 -4.030317941255248 -1.7534546869390972 6.06237279795522 0 1 0
390 130 2 0.527 -1.826341919420802 -4.465648752587656 -7.476682056020905 0 0 1
191 64 2 0.527 -5.913645561917864 -6.37505611231626 -5.926336087122241 0 1 0
190 64 1 -1.054 -5.947386356950849 -6.406956701120359 -4.970300119841501 0 1 0
52 18 1 -1.054 -1.9735770238324903 -7.067040567639094 -2.5640660390998216 0 1 0
209 70 2 0.527 -4.6134359625888735 -1.1883885395643201 6.569161200782448 0 1 0
1194 398 2 0.527 -3.4629890092794966 -2.412072452802537 -1.6218074493739154 0 0 0
491 164 2 0.527 -6.820478884857321 1.2398464620729843 -0.7961694839565396 0 0 0
1192 398 1 -1.054 -2.9530966040739344 -3.2175268602191354 -1.7079098406744588 0 0 0
54 18 2 0.527 -1.3018590522627633 -6.652676786351565 -2.02253272906293 0 1 0
142 48 1 -1.054 -5.941571922003668 -5.6861400442017125 -7.7584637952952225 0 1 0
143 48 2 0.527 -5.6402772037841125 -5.091136132195892 -7.071912522738385 0 1 0
1457 486 2 0.527 -1.8803680797835867 -2.5466954556000827 -7.59529529991688 0 0 0
690 230 2 0.527 -4.124000918402611 7.575903327276341 -0.5763592229625276 0 -1 1
144 48 2 0.527 -5.301199143933168 -6.39753491392732 -7.757525995153428 0 1 0
1193 398 2 0.527 -2.3149664521494735 -3.174863446684869 -0.9957788686050071 0 0 0
118 40 1 -1.054 -5.022052836113257 -1.3888222069454201 -2.0157312121563082 0 0 0
120 40 2 0.527 -4.680672869679526 -0.5208138832896267 -2.2306315448320673 0 0 0
1260 420 2 0.527 -1.5087498827123405 -0.7303830834449565 -5.654600998014159 0 0 0
389 130 2 0.527 -2.143309031539431 -5.60354259536726 -6.52987313431826 0 0 1
1479 493 2 0.527 -5.979328498596169 1.9282915538021168 -2.5286742191514016 0 1 0
1477 493 1 -1.054 -6.911967211889358 2.1432751840421282 -2.5399857811769166 0 1 0
16 6 1 -1.054 -7.572728826182853 7.757017039758013 7.857871887692065 0 0 0
212 71 2 0.527 -16.414778722663687 6.846603386330797 -4.51822412550293 0 -1 0
213 71 2 0.527 -17.910674268945726 6.802884917510987 -4.746484433572233 0 -1 0
211 71 1 -1.054 -17.155230483375867 6.242269245365453 -4.569918315268123 0 -1 0
73 25 1 -1.054 -19.163952378107307 -7.964727935371146 -4.674689585352007 0 0 0
62 21 2 0.527 -18.141855965429723 1.856806013791914 -5.047342730039701 0 1 0
360 120 2 0.527 -20.38485616379989 7.954270780084119 -0.2728708091984293 0 -1 0
765 255 2 0.527 -15.207185571382656 5.722353849390309 -6.880007728130771 0 0 0
275 92 2 0.527 -17.61212156882131 -6.73526350577321 -2.171574705229184 0 0 0
74 25 2 0.527 -19.941375026205357 7.718660246305831 -4.568234834917426 0 -1 0
358 120 1 -1.054 -19.640807105626994 -7.983369054727741 -0.7984082126029 0 0 0
1371 457 2 0.527 -17.72722525553013 3.463221795472716 -3.4431048080799247 1 0 0
1369 457 1 -1.054 -17.441923922594988 3.2407412235744317 -2.556952221165141 1 0 0
1370 457 2 0.527 -17.97174327437301 3.7982599959914207 -1.9871933972688565 1 0 0
557 186 2 0.527 -19.06760835035406 3.777804072440011 -4.968564134989677 0 -1 1
556 186 1 -1.054 -18.14479169754456 3.7239545346538208 -5.216899593470895 0 -1 1
558 186 2 0.527 -17.819790509586063 4.619893391529265 -5.128419806146149 0 -1 1
359 120 2 0.527 -20.028620898706247 -7.701146397269637 -1.6267268028241446 0 0 0
718 240 1 -1.054 -16.858264819815886 6.4536879671850205 -1.9726255464132798 0 0 0
720 240 2 0.527 -17.116162203415275 6.1855246449782335 -2.854520194482392 0 0 0
719 240 2 0.527 -17.237760249835585 5.788183965525226 -1.3988238578653345 0 0 0
1248 416 2 0.527 -20.724047768228548 1.9788964094443209 -2.4113996430374307 1 0 0
1246 416 1 -1.054 -19.91036738638347 1.6849828896266317 -2.820911377794011 1 0 0
1301 434 2 0.527 -14.894315648408794 1.6063034887817196 -5.6306431910895505 0 0 0
324 108 2 0.527 -14.809876334281467 5.089881487167778 6.937821966803215 0 0 -1
1302 434 2 0.527 -16.233800762401646 0.9137818996149853 -5.496810872440411 0 0 0
1300 434 1 -1.054 -15.74183164808014 1.5071593120715985 -6.064288135886001 0 0 0
1318 440 1 -1.054 -21.253200273731483 6.581593866675799 -4.755688589584949 1 -1 0
610 204 1 -1.054 -21.120382207954396 3.9101289715341867 -4.578312243352648 0 -1 0
441 147 2 0.527 -15.439954528929713 3.378255262237831 -2.496777396568164 0 0 0
439 147 1 -1.054 -14.504659358725817 3.1868836303049317 -2.5657752265688964 0 0 0
479 160 2 0.527 -1.8502619765657577 3.588244216482744 1.7001795966041549 0 1 0
713 238 2 0.527 -20.33648180898621 4.019657566046888 -0.2635414261976292 0 0 0
712 238 1 -1.054 -21.109078803203797 3.4676428082475113 -0.384100371892691 0 0 0
1092 364 2 0.527 -19.46114121479649 1.7526809429469186 -7.953013502557901 1 0 0
1107 369 2 0.527 -18.80542684897987 4.639685963645855 6.872346466882842 1 -1 -1
1090 364 1 -1.054 -20.411799762366886 1.7262814259370085 -7.844791235806475 1 0 0
1091 364 2 0.527 -20.683473775610913 0.9309376058397163 7.928703090978772 1 0 -1
602 201 2 0.527 -15.042237976629604 6.113997454587739 -1.7876213860736474 0 -1 -1
1247 416 2 0.527 -19.411000766969646 2.4885092183513873 -2.9663048692786207 1 0 0
601 201 1 -1.054 -14.198548703421563 5.90843744124448 -1.3850119681830098 0 -1 -1
170 57 2 0.527 -21.134350166049785 -3.4398027222721357 -3.41771425554335 0 0 -1
194 65 2 0.527 -0.5678747078646147 3.602020409294642 6.63190904007665 0 0 0
740 247 2 0.527 -13.117129406691548 2.685709239818502 -5.050124055180026 0 0 0
739 247 1 -1.054 -13.320947290505552 1.855218037856753 -4.620120052041756 0 0 0
741 247 2 0.527 -13.646350119418464 2.106101224291553 -3.7556367185040447 0 0 0
764 255 2 0.527 -13.905341727114287 5.028347020308031 -6.540486487640645 0 0 0
763 255 1 -1.054 -14.358772873748983 5.480965809675123 -7.251610418881786 0 0 0
619 207 1 -1.054 -10.758959255000928 -7.937765043684122 -3.596040937015955 0 1 0
1203 401 2 0.527 -13.422911704376391 7.276457838144008 -7.267421449777783 0 0 0
621 207 2 0.527 -11.01161014800446 7.370705062490588 -3.6138672029664116 0 0 0
579 193 2 0.527 -10.634353826643482 4.855346550056993 -3.1344409461407983 0 -1 0
711 237 2 0.527 -12.338139053444202 7.935771395076738 -0.22406756847721887 0 -1 0
709 237 1 -1.054 -12.02720982975611 7.0417518758422535 -0.3662399578332156 0 -1 0
1098 366 2 0.527 -8.852734100612762 4.153366004563811 -6.075419655696114 1 0 0
1096 366 1 -1.054 -9.057407687970935 5.03281829283498 -5.757877141315598 1 0 0
1097 366 2 0.527 -8.214261797234686 5.4857080431357 -5.745366497265719 1 0 0
577 193 1 -1.054 -11.006511200315682 5.236023601983824 -3.929893465987024 0 -1 0
201 67 2 0.527 -7.837944906633258 2.7664961010984666 -7.876799507348174 0 1 0
578 193 2 0.527 -10.288019045218903 5.220767203004309 -4.562109531775203 0 -1 0
125 42 2 0.527 -11.860892852922744 2.7219055232451304 0.9096090921996556 0 0 1
124 42 1 -1.054 -12.063919429906559 3.51055708797335 1.412570117332498 0 0 1
126 42 2 0.527 -12.605487297664137 4.037239938573762 0.8248030532501947 0 0 1
114 38 2 0.527 -13.804158824483956 4.200959714986233 -4.080107746990175 0 0 1
112 38 1 -1.054 -13.423339060367821 4.521371235263516 -4.897710126290457 0 0 1
113 38 2 0.527 -12.492314506546553 4.628426365039372 -4.703047908241744 0 0 1
66 22 2 0.527 -7.181973088923428 5.028815892166284 -1.500539649510844 0 -1 0
530 177 2 0.527 -12.509304042605871 2.267126957383896 6.920227611047924 0 1 -2
635 212 2 0.527 -10.546742335412008 4.357686279925733 -0.3319794180410227 0 0 0
346 116 1 -1.054 -8.26788909667287 0.17853218404898463 -4.337253378252499 0 0 0
348 116 2 0.527 -8.740339013904846 -0.44103402384495727 -3.7812952051096325 0 0 0
870 290 2 0.527 -7.1481413466361285 7.408016049965294 -6.605812259955135 0 -1 0
200 67 2 0.527 -8.205902591438992 1.6080116981996397 -6.974448249699186 0 1 0
199 67 1 -1.054 -7.882803937558386 2.5088058176810293 -6.956069324809187 0 1 0
868 290 1 -1.054 -7.154420827978258 7.117278031496516 -5.693895351002666 0 -1 0
710 237 2 0.527 -12.666607677873438 6.657859866478761 -0.9662051074675837 0 -1 0
636 212 2 0.527 -10.640013338622415 5.650008950453186 -1.114871683524342 0 0 0
440 147 2 0.527 -14.091377943796587 3.780400862951753 -1.9388011499133375 0 0 0
634 212 1 -1.054 -10.38298028134648 4.731729081128435 -1.1976784689936961 0 0 0
512 171 2 0.527 -6.095370086294425 5.075278951048672 -3.41398614400559 0 0 0
511 171 1 -1.054 -5.907558699523044 5.74702812383428 -2.7585162441287547 0 0 0
65 22 2 0.527 -8.409973999176072 4.373287028218398 -0.905549477570256 0 -1 0
64 22 1 -1.054 -7.462922783124121 4.266616763965136 -0.9942980383507107 0 -1 0
347 116 2 0.527 -7.931129617779188 0.837351732566411 -3.7300378952391355 0 0 0
513 171 2 0.527 -6.645118874222254 6.354087556512669 -2.818887460116562 0 0 0
1250 417 2 0.527 -5.40598298794546 -7.664336568949157 0.6481497346431944 1 1 0
366 122 2 0.527 -3.986002900886035 0.14808786232863724 -4.1485317734620155 0 1 0
365 122 2 0.527 -3.6903066459325338 1.337145814306865 -3.259474820151577 0 1 0
364 122 1 -1.054 -4.404159027359487 0.7725309417043231 -3.5557611272491103 0 1 0
469 157 1 -1.054 -4.675919354615637 3.347582714210189 -0.9484163249017614 0 0 -1
470 157 2 0.527 -4.395183525501054 2.5102263301851657 -0.5793871432748361 0 0 -1
1325 442 2 0.527 -21.47807089128353 -7.963428485186256 2.027499740245748 1 1 0
1258 420 1 -1.054 -1.5493357049749719 0.17195649943382385 -5.337904038365373 0 0 0
119 40 2 0.527 -5.643851316149563 -1.2329242444265152 -1.3049405593642591 0 0 0
1478 493 2 0.527 -6.989736324230364 2.9045912005462444 -1.9650851508140015 0 1 0
1324 442 1 -1.054 -21.207145796665273 -7.575375879282038 2.8594706521597804 1 1 0
1304 435 2 0.527 -0.6465448601595547 -7.965371912789358 6.863064682916942 0 1 0
183 61 2 0.527 -20.6584375695454 4.188831448484057 5.8458908228042255 0 0 -1
471 157 2 0.527 -4.183414531157524 4.004085235614797 -0.45586764654643197 0 0 -1
682 228 1 -1.054 -3.2740712703992436 5.263921599212473 -2.769916694344162 0 0 1
684 228 2 0.527 -3.296473266084707 5.6694397800628344 -3.6366427419761287 0 0 1
683 228 2 0.527 -4.157266084033484 5.389892435277796 -2.423132675576446 0 0 1
1239 413 2 0.527 -2.0662189953480983 6.250595204751567 -5.268255313291194 0 0 0
1237 413 1 -1.054 -1.5395376639802514 5.46240604830049 -5.400639024983205 0 0 0
1238 413 2 0.527 -1.3299169773854551 5.1624993171342 -4.5161753454369435 0 0 0
688 230 1 -1.054 -3.2014909689599165 7.338634276498494 -0.6703784350119548 0 -1 1
689 230 2 0.527 -3.170227706969758 6.8073404811514635 -1.4659349620529625 0 -1 1
1335 445 2 0.527 -1.759353333023867 2.6077356868829735 -2.694384507126709 0 -1 0
1333 445 1 -1.054 -2.4058982149134103 2.2230745250675863 -2.1026274529099362 0 -1 0
1334 445 2 0.527 -2.90376455052823 2.9708693604068124 -1.772335392561951 0 -1 0
453 151 2 0.527 -6.01334205477413 2.468202835987883 -4.460161977815065 0 0 0
452 151 2 0.527 -6.652295668850073 2.896150472514691 -5.764123843723178 0 0 0
451 151 1 -1.054 -5.987104790058202 3.1549453252189377 -5.126387926861113 0 0 0
1052 351 2 0.527 -20.048319218198532 2.115027268087159 4.201607410737271 1 -1 0
998 333 2 0.527 -0.8584110813327648 -0.7723809431298019 -4.049744846034076 0 0 1
269 90 2 0.527 -4.891436620374858 6.5644660917982804 -4.170857869079015 0 0 0
1259 420 2 0.527 -0.8083267682248234 0.6076150915826162 -5.7589362610481185 0 0 0
268 90 1 -1.054 -4.209396588734698 6.736633520739561 -4.819965305527381 0 0 0
270 90 2 0.527 -4.354332780065654 6.079313193755127 -5.5004682055451894 0 0 0
167 56 2 0.527 -4.305249432368942 3.7839721536105877 -6.107121336210882 0 0 0
179 60 2 0.527 -21.233691718076393 6.200231065710204 7.766973209441645 0 -1 0
1355 452 2 0.527 -1.6388520246968312 -0.37836449572102904 -0.21295091264189292 0 0 0
59 20 2 0.527 -2.9528724856914117 0.4203454367795896 -6.701313516637182 0 1 0
1356 452 2 0.527 -2.1114681450143316 0.9186497761092784 -0.8343245949310045 0 0 0
166 56 1 -1.054 -3.6340025654826817 4.057997657597509 -6.732019992568734 0 0 0
168 56 2 0.527 -2.8387189193386106 4.146027791114729 -6.206724563953697 0 0 0
664 222 1 -1.054 -4.066282980366626 -7.759977045065314 -7.011063193187419 0 1 1
17 6 2 0.527 -7.456316298012359 -7.839475649360394 7.151220256018618 0 1 0
552 184 2 0.527 -14.315386325812558 -4.560252752551381 8.063206937676675 0 0 0
1408 470 1 -1.054 -16.50021361239243 -7.415106674060691 -6.807657929909439 1 1 0
1410 470 2 0.527 -15.987377744708283 -7.209712599428426 -7.589305861638794 1 1 0
550 184 1 -1.054 -13.755589739709812 -3.8140989084874883 -7.953730855475452 0 0 1
198 66 2 0.527 -13.658387978338322 -0.16351439781243382 6.653737756668184 0 0 -1
251 84 2 0.527 -2.9825954005091724 5.2741051451255725 -7.889441862418592 0 -1 0
214 72 1 -1.054 -17.761594847558072 -1.0663358459395003 6.546480420872491 0 1 -1
216 72 2 0.527 -16.838340929698 -1.2855846560346365 6.421208667416305 0 1 -1
215 72 2 0.527 -17.868527004154686 -1.0115328426240477 7.496071390288149 0 1 -1
248 83 2 0.527 -21.06409826686451 -0.978405639091319 6.772918691308435 0 0 -1
1372 458 1 -1.054 -20.210622556551108 -5.952202407258298 6.888871605037291 1 1 -1
115 39 1 -1.054 -19.20461554137552 -5.709567825741306 4.062791846275848 0 0 0
117 39 2 0.527 -18.81628680853584 -5.5277460366210756 3.2070451113353897 0 0 0
1439 480 2 0.527 -17.095760365567017 -0.3275251541999795 4.8542800293324255 1 0 0
116 39 2 0.527 -19.858717185619 -6.386787127170348 3.8904958136869574 0 0 0
699 233 2 0.527 -19.347263277995015 7.6897395557347625 2.3701657271326226 0 -1 -1
903 301 2 0.527 -17.45925110055432 -1.7245485035181902 0.7350198733389455 1 0 0
49 17 1 -1.054 -20.013605438387113 -2.0784559983435305 2.8672988316903147 0 0 -1
893 298 2 0.527 -16.711291706976 -6.530661228946715 6.152759702623069 1 0 0
902 301 2 0.527 -18.631150153210243 -2.149708092319379 -0.123821604838386 1 0 0
901 301 1 -1.054 -17.975714479684857 -2.490575467177501 0.4847619459582866 1 0 0
1487 496 2 0.527 -19.28652370828395 -8.015118482524517 7.721794951217664 1 1 0
1486 496 1 -1.054 -18.56723084261041 7.585531060603314 7.693719442617459 1 0 0
1488 496 2 0.527 -17.799515424704225 8.107162661558434 7.459893922910522 1 0 0
1255 419 1 -1.054 -18.34058791412952 -4.991853880743879 1.5967747155484329 1 0 0
1256 419 2 0.527 -18.664760657931502 -4.309174773165879 1.00938897063409 1 0 0
1319 440 2 0.527 -21.14720502382175 5.726892979565777 -5.173315442012074 1 -1 0
50 17 2 0.527 -19.761031089081094 -3.0013874235219324 2.89105463225898 0 0 -1
1257 419 2 0.527 -17.98359117441027 -5.6611039852845675 1.0129781821196033 1 0 0
698 233 2 0.527 -17.843829415941336 7.51482296870609 2.3417324137873248 0 -1 -1
1480 494 1 -1.054 -17.31972411885885 -6.9924488217643015 -0.1691978450536311 0 0 0
608 203 2 0.527 -15.672839756856987 -7.973048783685577 3.0081852534230666 0 1 0
488 163 2 0.527 -20.12289077472338 -1.4153228553413086 4.5072260918057925 0 0 -1
1374 458 2 0.527 -21.028293079789695 -5.460766872819654 6.810981936972814 1 1 -1
1373 458 2 0.527 -19.822084596431218 -5.911634022061664 6.015056323786309 1 1 -1
647 216 2 0.527 -15.957823879988116 -2.979969389848849 -0.6762616401454125 0 -1 1
892 298 1 -1.054 -17.216446723142113 -7.171319820530271 5.652224299998139 1 0 0
894 298 2 0.527 -17.919451550362226 -6.6612745683346635 5.249981984472145 1 0 0
299 100 2 0.527 -14.541370184505407 -2.3327994220052934 7.29004332399319 0 1 -1
1481 494 2 0.527 -16.97231539259377 -7.702535664916161 0.37047288716130033 0 0 0
487 163 1 -1.054 -20.146149304970823 -0.8328136601963347 5.266372139839444 0 0 -1
489 163 2 0.527 -19.30912007900347 -0.9792359282639342 5.706943896276208 0 0 -1
339 113 2 0.527 -20.571868511178906 0.1434838624603625 0.7567436683735842 0 -1 -1
1482 494 2 0.527 -18.123531093336346 -7.349324103215733 -0.5469479882060257 0 0 0
338 113 2 0.527 -20.684924478896665 0.9579891434336538 2.02777363827307 0 -1 -1
337 113 1 -1.054 -20.85392692297916 0.9966558759609239 1.086442705371221 0 -1 -1
263 88 2 0.527 -3.8607318951248146 7.133071143365003 6.204381708615848 0 0 0
1033 345 1 -1.054 -7.886981231651042 -5.850879356792888 6.373062659920789 1 1 -1
738 246 2 0.527 -13.979705007363949 -5.464512275849037 4.693035415127026 0 0 -1
567 189 2 0.527 -10.12964020867835 -7.975116669462496 -7.0459159156169715 0 2 0
565 189 1 -1.054 -10.842651324397792 -8.086212434173103 -7.674751153701213 0 2 0
504 168 2 0.527 -8.781921723463055 -0.20050945647786023 7.179437235504057 0 0 -1
1035 345 2 0.527 -7.30555363145389 -5.789028443248407 5.615251842513775 1 1 -1
679 227 1 -1.054 -9.219565621983486 2.00020915058332 0.22879413619626376 0 0 -1
680 227 2 0.527 -10.055719846209254 1.6172152737162886 -0.036390015406247755 0 0 -1
681 227 2 0.527 -8.564029843896867 1.517041208402242 -0.2741793043498202 0 0 -1
1491 497 2 0.527 -16.346841516240758 -4.305495376687338 1.53246501003248 1 0 0
1394 465 2 0.527 -13.30440970415032 -3.5388024287411604 -0.9265562170142179 0 0 0
1490 497 2 0.527 -15.100790462240903 -3.4721145771026407 1.3213962513933595 1 0 0
1489 497 1 -1.054 -15.521495418244301 -4.058889479431313 1.949777734463284 1 0 0
300 100 2 0.527 -14.876740870723292 -2.395909835835938 5.815166690910575 0 1 -1
298 100 1 -1.054 -14.800078550049935 -1.7856235146976625 6.548538585599321 0 1 -1
648 216 2 0.527 -14.976754296113782 -1.8361628126014677 -0.8209221313134236 0 -1 1
646 216 1 -1.054 -15.029982710486175 -2.762660021510017 -0.5865494774397009 0 -1 1
495 165 2 0.527 -9.694367096177874 -6.436267333014294 6.013035854900396 0 0 0
494 165 2 0.527 -10.857544137167869 -5.579763273569439 5.560114641195645 0 0 0
217 73 1 -1.054 -14.47686285745606 -3.789782624100418 4.566701752522086 0 0 0
353 118 2 0.527 -7.694568294064128 -0.3938313616659155 3.0704499995910286 0 1 0
152 51 2 0.527 -8.239820081382245 -1.6295516937440757 0.9232996846847978 0 1 0
151 51 1 -1.054 -8.27078166014947 -2.5692818006946565 0.7441085182730038 0 1 0
153 51 2 0.527 -7.386497170686544 -2.8798841750538102 0.9383453038746143 0 1 0
354 118 2 0.527 -8.28029369161264 0.29689964598403407 1.8573819716568174 0 1 0
700 234 1 -1.054 -12.495695089501487 -1.8587424302955258 4.140021857541628 0 0 -1
701 234 2 0.527 -11.905792658574025 -1.9001681116980311 3.3873865698666226 0 0 -1
352 118 1 -1.054 -8.524711668966814 -0.2131474356461629 2.6295688648574043 0 1 0
737 246 2 0.527 -13.867008930853416 -6.582338013134856 3.6784011178480522 0 0 -1
736 246 1 -1.054 -13.795767414185555 -6.400625905933737 4.615452998271879 0 0 -1
219 73 2 0.527 -14.931763006953847 -3.9968610884958133 3.7504020189104548 0 0 0
218 73 2 0.527 -13.736868183815716 -3.245556293441397 4.29765439846442 0 0 0
87 29 2 0.527 -13.552302069343746 -0.10426767292876171 3.4391950841873644 0 -1 -1
378 126 2 0.527 -13.850583694804108 -6.879491107204787 1.373843112911798 0 1 0
733 245 1 -1.054 -9.694157677512285 -7.007142789873592 1.6331158934951393 0 1 -1
735 245 2 0.527 -9.263718098008512 -7.796499647332415 1.304789251409776 0 1 -1
377 126 2 0.527 -14.999906713534912 -6.047820898148048 1.9021410058471027 0 1 0
376 126 1 -1.054 -14.697143181638872 -6.951611538964199 1.8146338622366862 0 1 0
566 189 2 0.527 -10.739336162472636 -7.356934256981725 7.945502036064006 0 2 -1
721 241 1 -1.054 -12.49348119051661 -6.286632780416491 0.39425118797977454 0 0 -1
493 165 1 -1.054 -10.646708315996452 -6.442400516879228 5.917278637285579 0 0 0
1392 464 2 0.527 -9.539058951006044 -3.681338029383432 1.6535154454219505 0 1 0
1390 464 1 -1.054 -10.025536380805276 -4.281154231595588 2.218954304732792 0 1 0
29 10 2 0.527 -14.223941256956271 -6.636342287146672 6.382547881739118 0 0 0
28 10 1 -1.054 -14.727605648553975 -6.526723797078807 7.189063091903364 0 0 0
722 241 2 0.527 -12.302932470355149 -5.466890519351235 -0.06168152697652296 0 0 -1