LAMMPS data file via write_data, version 23 Jun 2022, timestep = 30000

1098 atoms
7 atom types
732 bonds
6 bond types
366 angles
9 angle types
0 dihedrals
14 dihedral types

-21.582312948935968 21.582312948935968 xlo xhi
-8.093367355851193 8.093367355851193 ylo yhi
-8.093367355851193 8.093367355851193 zlo zhi

Masses

1 15.9994
2 1.008
3 12.011
4 15.9994
5 1.008
6 15.9994
7 1.008

Pair Coeffs # lj/cut/tip4p/long

1 0.185199 3.1589
2 0 0
3 0.056 3.58141
4 0.1 2.93997
5 0.035 2.38761
6 0.192 3.14487
7 0.046 0.40001

Bond Coeffs # harmonic

1 0 0.9572
2 222.35 1.53
3 308.79 1.1111
4 359.76 1.1415
5 427.715 1.142
6 544.635 0.96

Angle Coeffs # charmm

1 0 104.52 0 0
2 50 109 0 0
3 26.5 110.1 22.53 2.179
4 45 111.5 0 0
5 13.0258 109.4 0 0
6 35.5 109 5.4 1.802
7 55 108.89 0 0
8 75.7 110.1 0 0
9 95 109.7 0 0

Dihedral Coeffs # charmm

1 0.57 1 0 0
2 0.29 2 0 0
3 0.43 3 0 0
4 0.59 1 180 0
5 1.16 2 0 0
6 0.12 1 0 0
7 0.42 2 0 0
8 0.29 3 0 0
9 2.87 1 180 0
10 0.03 2 0 0
11 0.23 3 0 0
12 1.36 1 180 0
13 0.16 2 0 0
14 1.01 3 0 0

Atoms # full

90 30 2 0.527 21.036651523539188 -0.867238900509256 -6.253858261972213 0 0 1
88 30 1 -1.054 -21.56495097808185 -0.7559754205379887 -5.4878064446519845 1 0 1
779 260 2 0.527 -20.2445962010043 -0.4156040724150456 -3.6705857482018347 0 1 0
778 260 1 -1.054 -19.43478021741471 -0.2689878265927934 -3.1817999006839432 0 1 0
780 260 2 0.527 -19.170384427614504 -1.1408797238061545 -2.888356243540648 0 1 0
89 30 2 0.527 21.318590790069887 -1.4415005564760843 -4.881789429234722 0 0 1
141 47 2 0.527 -18.21278980441035 -2.8090851500947833 -6.897906126714631 0 0 0
139 47 1 -1.054 -18.16420727992533 -2.2201281938133075 -6.1449260568861455 0 0 0
1346 449 2 0.527 19.649540169166055 -5.492674859951961 -1.017762746803304 -1 1 0
1345 449 1 -1.054 18.713132724352032 -5.571243852392417 -1.1999113313041265 -1 1 0
1332 444 2 0.527 -17.09340602144666 -3.1439061465646088 -4.576329932605239 0 0 0
1330 444 1 -1.054 -16.247655322341817 -3.1098568315471944 -4.129389012079933 0 0 0
1331 444 2 0.527 -15.88743547984986 -3.9909574644569528 -4.229951344715374 0 0 0
461 154 2 0.527 -18.08146191441199 -6.520554052324731 -1.2139260726906604 0 0 0
1347 449 2 0.527 18.634186976038404 -6.379527565275017 -1.706522181965287 -1 1 0
140 47 2 0.527 -19.064064817227592 -1.9202295338024644 -6.0163701421339955 0 0 0
903 301 2 0.527 -19.690802449264424 -2.6044176742854557 0.05621436832448978 1 0 0
942 314 2 0.527 -15.899582340246997 -2.423729757630383 -2.5721378622721875 0 0 0
462 154 2 0.527 -17.160464855154014 -5.369809717475359 -0.8683934277240954 0 0 0
460 154 1 -1.054 -17.955299512674202 -5.58262996851124 -1.3574286800450492 0 0 0
1482 494 2 0.527 -17.691390698263266 -5.547096037596532 -3.483454752089358 0 0 0
469 157 1 -1.054 -19.601066316684385 -4.405256082095595 0.5131100257765411 0 0 0
471 157 2 0.527 -18.88739570192192 -4.556206164374169 -0.10664679564866919 0 0 0
470 157 2 0.527 -19.21070863450149 -4.5654399050075405 1.3722793622512128 0 0 0
359 120 2 0.527 -15.371289894514309 -6.120884022799156 -3.9432662767536177 0 1 0
1480 494 1 -1.054 -17.22679874855395 -5.8643158917557905 -4.257880827450326 0 0 0
574 192 1 -1.054 -19.57203605562655 -3.12543735043094 -3.407048401662794 1 0 1
576 192 2 0.527 -20.25958227809632 -3.650870811781367 -3.8162066142416435 1 0 1
1109 370 2 0.527 -17.694789788708203 -0.15989658060520373 -4.351652321088277 0 -1 1
982 328 1 -1.054 -14.297040285606428 -5.226913712106454 -7.219352580122005 0 1 0
984 328 2 0.527 -14.265449269521346 -5.60534275799694 -6.340715682123546 0 1 0
358 120 1 -1.054 -14.451047272376838 -5.917902423260211 -3.7754527707047982 0 1 0
547 183 1 -1.054 -19.67091587807244 -6.811815117773222 -5.737258206755751 1 1 0
549 183 2 0.527 -18.839323964735076 -6.340609436313397 -5.685978192986771 1 1 0
548 183 2 0.527 -19.95127938162263 -6.7055926310174065 -6.646281137501267 1 1 0
360 120 2 0.527 -14.24925092788716 -6.375726983236934 -2.959434728056407 0 1 0
575 192 2 0.527 -19.57996473114929 -3.3934152961701907 -2.4881714478889077 1 0 1
1395 465 2 0.527 20.975353097489435 -5.512719302035743 -3.1287129251423735 -1 0 0
1481 494 2 0.527 -17.219952684526994 -6.816499389670248 -4.160360499711169 0 0 0
1079 360 2 0.527 -15.85822920208718 -0.9613916959529858 -7.212517246200464 0 0 0
1078 360 1 -1.054 -16.177456336907753 -0.05901412315787269 -7.208169794631368 0 0 0
102 34 2 0.527 -21.4029317938024 -1.6284786753737812 -2.0425366128724782 1 0 0
424 142 1 -1.054 -20.035245656810922 -6.887009733162371 7.620302821561143 1 1 -1
1483 495 1 -1.054 -17.490741993860244 -3.8632803647389187 7.891586413172696 1 0 0
1484 495 2 0.527 -17.975520970385496 -3.3819952367021635 7.221091418172662 1 0 0
1485 495 2 0.527 -16.610661334308514 -3.487664565300866 7.867490401393079 1 0 0
375 125 2 0.527 -16.666698684128004 -1.0969697736111215 -0.8590259763393933 1 0 -1
373 125 1 -1.054 -17.405276704291254 -0.6691930442641096 -0.4257590267900069 1 0 -1
940 314 1 -1.054 -15.665643649220065 -2.2009292355019774 -1.6711149631883861 0 0 0
941 314 2 0.527 -14.79155484854871 -1.8166306788608715 -1.738143994696431 0 0 0
151 51 1 -1.054 -12.65915305610194 -3.8668902175145705 -3.6816172960605513 0 0 0
152 51 2 0.527 -13.281031917201208 -4.594308485174427 -3.700071300185538 0 0 0
153 51 2 0.527 -12.49898793908957 -3.7116439813034283 -2.75078158504916 0 0 0
1358 453 2 0.527 -13.866177546752432 -2.1776917839751073 -6.805629804839671 0 1 0
983 328 2 0.527 -14.166934622616843 -5.971763929400998 -7.806276871380898 0 1 0
1359 453 2 0.527 -14.432493280753679 -3.436785391782733 -7.426764612004552 0 1 0
1357 453 1 -1.054 -14.459742664637112 -2.4822142009285635 -7.492037761991586 0 1 0
1050 350 2 0.527 -13.201024551323776 -6.878451528302959 -0.9410500343991846 0 0 0
850 284 1 -1.054 -10.959100318927376 -5.7783560152975495 -4.943071771332897 0 0 0
851 284 2 0.527 -11.441917724798099 -6.537812060940279 -5.269144947273795 0 0 0
126 42 2 0.527 -14.70266012831957 -1.9871798887743095 -4.742030951895686 0 0 0
124 42 1 -1.054 -13.78567433530137 -1.7784037513098063 -4.92024111318576 0 0 0
125 42 2 0.527 -13.291599700693274 -2.4622846081090666 -4.46812710770809 0 0 0
972 324 2 0.527 -10.405599521172995 -4.356349060965435 -5.784121837140265 0 0 0
971 324 2 0.527 -9.58254336449888 -3.103654321735956 -5.5715785471169905 0 0 0
1259 420 2 0.527 -11.169695527499426 -0.2298116364770939 -2.497097308504772 0 0 0
1258 420 1 -1.054 -10.23939015953215 -0.0763394118130023 -2.332206005117758 0 0 0
136 46 1 -1.054 -9.32400268534191 -5.168391804754929 -0.13587129113048135 0 1 0
137 46 2 0.527 -8.89868157010831 -5.0653481902663176 -0.9871613359689562 0 1 0
1043 348 2 0.527 -7.377429993107581 -7.12717005699331 -4.785365043069154 0 0 0
138 46 2 0.527 -9.61253580119377 -4.285839444995116 0.09663648959048565 0 1 0
1362 454 2 0.527 -7.222987791504522 -4.930134921560221 -2.3874854711600673 0 1 1
1360 454 1 -1.054 -8.135832017888495 -5.1323752427678135 -2.5924834517258484 0 1 1
1361 454 2 0.527 -8.499073703182434 -4.305979268975804 -2.9108150853880144 0 1 1
727 243 1 -1.054 -9.000109774914401 -7.420739853286144 -3.719035068657914 0 0 0
729 243 2 0.527 -9.87068429701192 -7.210375819235412 -4.05675732474088 0 0 0
728 243 2 0.527 -8.752816944667346 -6.655628435712725 -3.1997470626548177 0 0 0
1479 493 2 0.527 -11.31899511365491 -7.09628052771849 -0.7540153372897276 0 0 0
1477 493 1 -1.054 -11.603367231639536 -6.737491930337306 0.08658783083790667 0 0 0
1237 413 1 -1.054 -11.406471133268541 8.080805275608967 -2.3244309919060475 0 0 0
1174 392 1 -1.054 -10.29713722482057 -2.593624496443115 -0.09967666314017887 0 0 -1
1175 392 2 0.527 -11.053883884981907 -2.4567805341737614 0.47025122843685274 0 0 -1
1478 493 2 0.527 -11.327217240591008 -5.82132699304023 0.06223608682110182 0 0 0
127 43 1 -1.054 -9.009489687651419 -1.9338061151972132 -3.9185721489364473 0 0 0
1238 413 2 0.527 -10.459651600500326 -7.985821474400295 -2.397347463783631 0 1 0
1209 403 2 0.527 -8.789119452561998 7.380387438224588 -0.20164313716000049 0 0 0
1176 392 2 0.527 -10.242612421781505 -1.7936349324290255 -0.6224136229309414 0 0 -1
852 284 2 0.527 -11.604172449435277 -5.282101349380543 -4.439263200332872 0 0 0
970 324 1 -1.054 -9.844325925977806 -3.732286025091012 -6.244261103132902 0 0 0
573 191 2 0.527 -13.384463327647557 -0.3297723048628738 -2.6040851533238465 0 0 0
571 191 1 -1.054 -12.791441306731052 -0.8325997891577508 -2.045784391000838 0 0 0
128 43 2 0.527 -9.595485654458114 -1.3622254725638365 -3.4224730309743503 0 0 0
129 43 2 0.527 -8.715032852784079 -1.3959049610642902 -4.653532718012151 0 0 0
1048 350 1 -1.054 -14.07042188920467 -6.782026159831943 -1.32971477974586 0 0 0
1049 350 2 0.527 -14.565591186768687 -6.274054867398979 -0.6870776932258096 0 0 0
688 230 1 -1.054 -12.342785540134619 -8.081421477615585 -6.278650091394618 0 1 0
572 191 2 0.527 -12.637114362198 -0.2671759281252948 -1.289022013518725 0 0 0
1382 461 2 0.527 -5.414804642101149 -4.342688794006056 -0.5925120060811855 0 0 0
1042 348 1 -1.054 -6.698192312841549 -6.930807260059813 -5.4305685473875895 0 0 0
1208 403 2 0.527 -7.976350338337845 6.2557407527862345 -0.8069655345341085 0 0 0
1207 403 1 -1.054 -8.722729084330966 6.82909319393287 -0.981307641457617 0 0 0
1044 348 2 0.527 -7.113948195690659 -6.319029927533862 -6.038092542243416 0 0 0
1383 461 2 0.527 -5.308470994574133 -5.7787433633903404 -1.0597171118501612 0 0 0
1381 461 1 -1.054 -5.719596580925671 -4.941404790650029 -1.2743115009005956 0 0 0
960 320 2 0.527 -4.189226407129741 -0.26207365936707294 -2.922020402440028 0 0 0
958 320 1 -1.054 -4.820807630219676 -0.8582316823191611 -3.32440151213747 0 0 0
654 218 2 0.527 -4.094911174000924 -1.4601568854320774 1.1991114327470367 0 0 0
652 218 1 -1.054 -3.9016235887060553 -2.1045525569392076 1.879995785507763 0 0 0
313 105 1 -1.054 -4.1245211402630595 -7.197556859454769 -1.0277272468711862 0 1 0
315 105 2 0.527 -4.091953932063511 8.053317115053694 -1.2260079755678817 0 0 0
1326 442 2 0.527 -4.801684338605682 -4.6718783606584005 -2.716803666410704 0 0 0
1324 442 1 -1.054 -4.252734907294801 -4.200788418381601 -3.3436523091444768 0 0 0
1325 442 2 0.527 -4.818120649359198 -3.5075899838828644 -3.6842755765530777 0 0 0
1350 450 2 0.527 -5.815590789626592 -1.382086463552504 -1.1114638649200552 1 0 1
1278 426 2 0.527 -2.392628298886219 -7.062131163098076 -6.463929297778355 0 0 0
536 179 2 0.527 -1.3823510538662305 -2.6864103562068307 -3.151929896220164 0 0 0
535 179 1 -1.054 -1.874367305279165 -2.6321237162221207 -2.332672674465993 0 0 0
537 179 2 0.527 -2.792541086045599 -2.644705302582235 -2.6028726624313228 0 0 0
1214 405 2 0.527 -4.58964268220824 -6.807351586445013 -5.312640847749885 0 0 0
1213 405 1 -1.054 -3.8500277626720134 -6.644670210045037 -4.727222769545191 0 0 0
1215 405 2 0.527 -4.0144661027027695 -5.772182917258317 -4.36954112209098 0 0 0
959 320 2 0.527 -4.925954861241689 -0.5295424704462803 -4.217215507376669 0 0 0
1276 426 1 -1.054 -1.8847603811886309 -6.893700193632733 -7.257598383655487 0 0 0
705 235 2 0.527 -1.1806178747897533 -4.74181524683725 -2.411947986627717 0 0 0
703 235 1 -1.054 -0.6277342889016921 -5.328492499691192 -1.8958671948429053 0 0 0
496 166 1 -1.054 -0.8359765435801805 -3.3168840526150323 -4.741145080583336 0 0 0
1261 421 1 -1.054 -4.783369142151727 0.5249362853042552 -5.692216086335264 0 0 0
195 65 2 0.527 -3.445079167204426 1.6264947638675658 -2.539929990491375 0 0 1
193 65 1 -1.054 -3.090832481162632 0.81803153425445 -2.1696519483145824 0 0 1
828 276 2 0.527 0.33152124361249236 0.6540402720421667 -1.4161480601825138 0 0 1
827 276 2 0.527 0.7433638333234782 1.582200378988821 -2.5389767455177745 0 0 1
826 276 1 -1.054 0.9246252622807312 1.3766176483329193 -1.6218669426101044 0 0 1
122 41 2 0.527 -0.8222182747988462 -3.950664673161624 -7.215661402151638 0 0 1
121 41 1 -1.054 -1.5252247340084963 -4.2586643600676855 -7.787611894136906 0 0 1
1277 426 2 0.527 -2.028238793808594 -5.965434494666638 -7.441843444071253 0 0 0
30 10 2 0.527 -0.4043403900001685 -6.254476917421288 -6.126464597536513 0 0 0
1263 421 2 0.527 -5.487806510630328 0.45024334721222736 -6.335953905956448 0 0 0
800 267 2 0.527 0.9661269358370994 -1.5607551461761062 -1.1119025791271353 0 0 1
799 267 1 -1.054 0.05955228134960322 -1.269933805902304 -1.0131354048987262 0 0 1
801 267 2 0.527 -0.43880625571249965 -1.8321827298023745 -1.606199663674265 0 0 1
704 235 2 0.527 -1.120578584091163 -5.4741349188799475 -1.088337890205949 0 0 0
521 174 2 0.527 4.03864324842117 -4.04729086937785 -4.212203678206635 0 0 0
497 166 2 0.527 -0.4872439803840578 -2.459073526767722 -4.983544475458418 0 0 0
617 206 2 0.527 0.7625056243486981 -0.04475556098882372 -4.577127823380859 0 0 0
520 174 1 -1.054 3.5366981855699677 -4.700730168173716 -4.699315668151673 0 0 0
522 174 2 0.527 2.9907170158387864 -5.125870713856389 -4.037976155396935 0 0 0
498 166 2 0.527 -0.13136717855064006 -3.9301511227009245 -4.950043279796654 0 0 0
616 206 1 -1.054 0.760528386346639 -0.9706310919576842 -4.819947675680006 0 0 0
1127 376 2 0.527 2.7473309301040914 -3.722390198132727 -5.971436403424697 0 0 0
145 49 1 -1.054 5.648308211583366 -7.100151811802657 -2.062944432952065 0 0 0
1457 486 2 0.527 1.3770088816453558 8.066964097463327 -1.6833426595778462 0 -1 0
1126 376 1 -1.054 2.506622741608126 -3.0433685410730655 -6.601674626377092 0 0 0
1128 376 2 0.527 2.4339202647661224 -2.24517294935616 -6.078408152790618 0 0 0
146 49 2 0.527 4.7085251863485205 -6.947282954993569 -1.9647171942530628 0 0 0
1030 344 1 -1.054 2.3800430314072756 -5.685875907280591 -2.181447067608614 0 0 0
134 45 2 0.527 4.932401643952975 -2.7812270253262064 -7.2935813350895735 0 0 1
618 206 2 0.527 1.6400823696304698 -1.2781021031602062 -4.600730153515737 0 0 0
1023 341 2 0.527 0.49793539864410263 4.910499081263879 -2.680337587057756 0 0 0
1031 344 2 0.527 2.6261590796463636 -4.821476026690854 -1.8521299860053153 0 0 0
1032 344 2 0.527 1.4757380773472235 -5.581427254198168 -2.4773064931449644 0 0 0
230 77 2 0.527 6.746149454451679 -2.1445552324086217 7.451504645721588 0 1 -1
1275 425 2 0.527 5.644239221552326 -3.8085975331899693 -2.8345447052123687 0 0 0
1438 480 1 -1.054 2.7536611647165543 -3.021927853859908 -1.2288981854641472 0 0 0
485 162 2 0.527 6.293724063286454 0.6851898409568413 -3.138716321970816 0 0 0
484 162 1 -1.054 6.237561583487601 1.3444464155073366 -2.4470253520372305 0 0 0
636 212 2 0.527 2.7825231169378384 -3.8894382940292216 -8.088140322576933 0 0 0
28 10 1 -1.054 0.38534599351919496 -6.019553979958539 -5.639210720313658 0 0 0
135 45 2 0.527 6.195303281775239 -3.5552286399396325 -6.9807873017747495 0 0 1
133 45 1 -1.054 5.8809717987957235 -2.681483336986096 -7.213112181740562 0 0 1
1273 425 1 -1.054 5.031488019768876 -3.0742456347946465 -2.8729232085884933 0 0 0
1251 417 2 0.527 4.611876944427358 -6.941004313629701 -6.014346594659923 0 0 1
1249 417 1 -1.054 4.216751072806101 -7.576550090767722 -6.611143961187893 0 0 1
1250 417 2 0.527 3.721173256315293 -7.044950244319844 -7.234052049217639 0 0 1
631 211 1 -1.054 6.735905509785443 -5.31352634271539 -7.348759016157682 0 0 1
633 211 2 0.527 7.273303283466003 -6.018818513969663 -7.709280990896517 0 0 1
1314 438 2 0.527 6.322515713707588 -1.3354269601416116 -4.974337294348977 0 0 1
1312 438 1 -1.054 6.7188215022941264 -1.0899459446541 -4.138340818282121 0 0 1
899 300 2 0.527 0.023377871609781664 -7.859327127165736 -3.107432312530303 0 0 0
323 108 2 0.527 3.7316223207875012 -0.5175787598298154 -5.1387751660235335 0 0 0
322 108 1 -1.054 3.4758106483383955 -1.2329058032539502 -4.556472052892646 0 0 0
1440 480 2 0.527 3.3001538238658057 -3.2601959100441276 -0.4800430283135144 0 0 0
486 162 2 0.527 6.79520493554169 1.005621093668898 -1.7467105807114383 0 0 0
29 10 2 0.527 1.0537147155889741 -5.892088353362432 -6.312446261607363 0 0 0
420 140 2 0.527 8.148277621122944 7.731883779881974 -6.144987894963642 0 -1 0
1439 480 2 0.527 3.3773838449370253 -2.806256501644393 -1.922199024566913 0 0 0
466 156 1 -1.054 2.0834095588975394 -6.416059650231543 -7.89422807029416 0 0 0
8 3 2 0.527 8.50924815651954 -6.7951338467377855 -1.2535220402943654 0 0 0
981 327 2 0.527 11.017775645480409 -3.1834685205134576 -5.9295761031021605 0 0 0
400 134 1 -1.054 7.959756750276636 -3.7844700847699073 -3.386070823229354 0 0 0
401 134 2 0.527 8.663699438804247 -4.166474563678844 -2.861908025437134 0 0 0
402 134 2 0.527 7.9998576307142955 -2.8473605786126805 -3.195211380845304 0 0 0
879 293 2 0.527 5.848109726823452 -5.9345462624477765 -3.8664340783191946 -1 0 1
979 327 1 -1.054 10.394752442629972 -2.7671203749811655 -6.525148073788191 0 0 0
980 327 2 0.527 9.569466611493535 -2.7568959411280005 -6.040371790063915 0 0 0
877 293 1 -1.054 6.472206550461387 -5.747656516810757 -4.567707906377567 -1 0 1
878 293 2 0.527 7.002113246908706 -5.02508230725603 -4.231113737804446 -1 0 1
926 309 2 0.527 9.891758295423237 -6.597507715264051 -5.251449852382224 0 0 0
632 211 2 0.527 6.576377168054556 -5.573204016493461 -6.4413846892210955 0 0 1
921 307 2 0.527 12.706841452007165 -1.5873252215688876 -3.1551941433429516 0 0 0
406 136 1 -1.054 14.477956835959208 -4.15999591488125 -6.683498824570047 0 0 0
407 136 2 0.527 15.36389810137867 -4.3620319815499435 -6.984330225934646 0 0 0
408 136 2 0.527 13.90925283615788 -4.4627724251756025 -7.391392163797779 0 0 0
919 307 1 -1.054 13.402833722712597 -2.141996769364156 -2.8028534948857082 0 0 0
920 307 2 0.527 12.98023109897353 -2.9862434372171567 -2.6451690917902493 0 0 0
927 309 2 0.527 10.999840583043866 -7.023677034366329 -6.1907965224159485 0 0 0
1154 385 2 0.527 12.367821579774446 6.166960755369502 -6.229576464203146 -1 -1 1
1153 385 1 -1.054 13.321502980808784 6.17137775858982 -6.311317869833678 -1 -1 1
7 3 1 -1.054 7.915760112056379 -6.459275818244501 -0.5818218402658841 0 0 0
9 3 2 0.527 7.050495006123391 -6.487718985357733 -0.9901313488086112 0 0 0
559 187 1 -1.054 11.928282271079507 -4.342878295891225 -2.0995027988651502 0 0 0
560 187 2 0.527 11.736350074894172 -4.08014237971291 -2.9996928650829497 0 0 0
561 187 2 0.527 11.211955162024221 -3.972847983806828 -1.5835927301747956 0 0 0
1372 458 1 -1.054 12.239032264786001 -4.156936026031975 -4.8276840337183184 0 0 0
1374 458 2 0.527 12.954556405968315 -3.9836729113798564 -5.439415314611683 0 0 0
1313 438 2 0.527 7.543818047039196 -0.6681547136128199 -4.378512355043665 0 0 1
533 178 2 0.527 15.165977026405127 -2.30780034755424 -6.389506357908419 0 0 0
534 178 2 0.527 15.116083114761711 -0.841784730435192 -6.015140474052583 0 0 0
532 178 1 -1.054 15.640927510298408 -1.4833340626431522 -6.493850556822989 0 0 0
1155 385 2 0.527 13.57528446813144 7.072518318533492 -6.1119436246585055 -1 -1 1
495 165 2 0.527 9.81046920360053 -3.6831734629234303 -7.998363547048593 0 0 0
493 165 1 -1.054 9.785406473545176 -4.303568210630095 7.459884946717986 0 0 -1
494 165 2 0.527 9.27830614862551 -3.857146981901149 6.781823977146264 0 0 -1
1223 408 2 0.527 15.93094376502808 -7.293817708949913 7.922548723163231 0 1 -1
1272 424 2 0.527 10.95348127294692 -0.4918318026001005 -4.747210610994385 0 0 0
691 231 1 -1.054 9.368142217506762 -7.584491566053573 -2.506919862108579 0 0 0
418 140 1 -1.054 8.357326473501438 7.981965366419146 -5.245005516178368 0 -1 0
692 231 2 0.527 10.25000498252103 -7.664797817166781 -2.870345769913375 0 0 0
1123 375 1 -1.054 13.643788116937518 -7.719578705992999 -4.906028178612548 0 1 0
1125 375 2 0.527 12.777899306124684 -7.390550445532735 -4.664808843140424 0 1 0
277 93 1 -1.054 12.501819607473468 7.129597132207357 -0.28657519592471825 0 -1 0
279 93 2 0.527 12.94607002615319 6.878425549806794 0.5232175535474077 0 -1 0
1274 425 2 0.527 5.394076027018702 -2.4938684369437167 -3.5421778878545496 0 0 0
795 265 2 0.527 9.972499231565987 -1.2140573094741987 -1.4099624967885314 -1 0 0
1373 458 2 0.527 11.715127013114557 -4.8335171013640394 -5.256603816686846 0 0 0
833 278 2 0.527 11.137378085362354 -5.783831384348007 -0.045829166939185484 0 0 0
278 93 2 0.527 12.35016450438162 8.070275037156005 -0.19527421691215263 0 -1 0
1104 368 2 0.527 19.02784072110556 7.265470007246018 -3.277294051528844 -1 -1 0
1102 368 1 -1.054 18.622515330135673 7.997897630668881 -3.741481907411412 -1 -1 0
876 292 2 0.527 19.366198253450907 -1.633511793076745 0.27268816434492393 -1 0 0
874 292 1 -1.054 19.151888180822557 -2.3234807518731646 -0.35518424558951 -1 0 0
807 269 2 0.527 19.093731757404367 -0.7967692794540646 -7.6615472786698104 0 0 0
875 292 2 0.527 18.212649546533097 -2.4684855345583347 -0.24110507642500068 -1 0 0
1441 481 1 -1.054 15.84607985693118 -5.115142519425166 -4.10858528036958 0 0 0
1442 481 2 0.527 14.996792851985301 -5.205679872561511 -4.540701478965158 0 0 0
1443 481 2 0.527 16.48260892486695 -5.13887604732234 -4.823061893207063 0 0 0
53 18 2 0.527 16.868442512885306 -2.8918623799562475 7.473756884078291 0 -1 -1
54 18 2 0.527 15.89401224141557 -1.8397230977766048 7.958862643626965 0 -1 -1
52 18 1 -1.054 16.128498893575962 -2.3561932100833802 7.187834821099454 0 -1 -1
1460 487 2 0.527 20.01811369029053 -3.8548505419480374 -4.8683426225577335 0 1 0
1461 487 2 0.527 18.90805755141059 -2.835076376542011 -5.0086149624117144 0 1 0
1459 487 1 -1.054 19.532983902344103 -3.348888812838295 -5.520156453796394 0 1 0
1095 365 2 0.527 17.843203493304397 -4.589323712114403 -7.573269167323914 -1 0 0
1093 365 1 -1.054 17.274759047022567 -4.035697745119367 -7.037938504678772 -1 0 0
805 269 1 -1.054 19.820290260831467 -1.4198899968061909 -7.668116201352039 0 0 0
806 269 2 0.527 19.512606762779004 -2.1529128804480937 -7.134994619869196 0 0 0
217 73 1 -1.054 15.875721194388579 -1.1158141888746425 -2.0419263588440213 0 0 -1
1094 365 2 0.527 17.73886370020875 -3.9494254275853464 -6.205247951790925 -1 0 0
219 73 2 0.527 14.990156645300967 -1.3030401342529876 -2.353265212702496 0 0 -1
218 73 2 0.527 16.233386069873266 -1.971919610328289 -1.8066209438439707 0 0 -1
684 228 2 0.527 17.061085956320664 -1.273463484571593 -4.980386689432732 0 0 0
1224 408 2 0.527 17.22126010988136 -6.969329578546691 -7.541945974810129 0 1 0
682 228 1 -1.054 17.723682771132435 -1.6682454978027268 -4.413533257688684 0 0 0
683 228 2 0.527 17.51886719293009 -1.3378962033284285 -3.5388165998720575 0 0 0
923 308 2 0.527 15.325127419427044 -8.019595630179332 -3.995346103291154 0 0 -1
173 58 2 0.527 18.43996083959117 -7.209145122790741 -5.242200498974027 0 0 0
310 104 1 -1.054 17.815649885340523 0.5322279585567014 -6.9263043675436435 0 0 1
312 104 2 0.527 16.929859782587993 0.2143996527342189 -6.751458913554297 0 0 1
1394 465 2 0.527 -21.37415053999182 -5.586280931258965 -4.402291991472566 0 0 0
1393 465 1 -1.054 21.464946783911675 -4.969708093473697 -3.746488256510707 -1 0 0
119 40 2 0.527 17.3751401686056 -4.4327506733668205 -1.900331176715274 -1 0 0
118 40 1 -1.054 16.510985060863778 -4.0314645964265114 -1.8085975202662397 -1 0 0
1222 408 1 -1.054 16.731529139540594 -6.7748114907143115 7.845704104191968 0 1 -1
120 40 2 0.527 15.99070475001039 -4.418481776776346 -2.512682373320911 -1 0 0
101 34 2 0.527 20.315259479803355 -2.0662338846750057 -2.1321804359318435 0 0 0
1103 368 2 0.527 17.68169264627262 7.838402303342075 -3.6664893763650417 -1 -1 0
100 34 1 -1.054 20.944475638324977 -1.4506026083735604 -2.508072556766238 0 0 0
922 308 1 -1.054 15.776499052760887 7.7308404594809925 -3.2727694768924938 0 -1 -1
172 58 1 -1.054 18.209942603395564 -6.5873217115487535 -5.93258927719436 0 0 0
1230 410 2 0.527 21.385229063242402 -6.513942032013571 -7.357987985741148 0 0 1
924 308 2 0.527 15.633042269783555 -7.883117610006987 -2.5194052410221035 0 0 -1
895 299 1 -1.054 13.979367387430681 -4.623506196901937 0.47693354380051645 0 0 0
897 299 2 0.527 13.656258951155582 -4.040182064875836 -0.20975655651641034 0 0 0
1108 370 1 -1.054 -16.80233312366078 0.12526497971567885 -4.547646062977319 0 -1 1
835 279 1 -1.054 -18.584130917535354 0.3407488580950986 7.792695923252996 0 0 0
836 279 2 0.527 -19.062774029309164 0.8353456104561321 7.127500308001311 0 0 0
837 279 2 0.527 -18.842175920849947 -0.5694079930786948 7.646964998117086 0 0 0
741 247 2 0.527 -20.26151613581102 7.127382690375255 -3.5699869266412607 1 -1 0
1080 360 2 0.527 -16.992504877142306 -0.0903733416525263 -7.709092975839378 0 0 0
183 61 2 0.527 -18.328149595868588 3.098859531959432 -2.3584011392908364 0 0 0
1110 370 2 0.527 -16.727997596584633 0.04461453942647253 -5.498529863457107 0 -1 1
1448 483 2 0.527 -15.284398448171213 1.0146851603112559 -3.7733016666883374 0 0 1
1449 483 2 0.527 -15.130330958632781 1.5592306581428925 -2.3691737436788545 0 0 1
1020 340 2 0.527 -15.741918652434673 7.161107555517328 -2.667627331050637 0 -1 1
816 272 2 0.527 -20.76382817236605 1.362870457072642 -5.661905698636067 0 0 1
1097 366 2 0.527 -17.84493636728977 7.244458262195536 -3.949866284202594 0 0 1
815 272 2 0.527 -19.929517936463338 2.5644041528460075 -6.051883224596448 0 0 1
1096 366 1 -1.054 -16.96370026884056 7.603149914452731 -4.054619147769231 0 0 1
1098 366 2 0.527 -16.484671782999158 6.926826305744912 -4.533501548019393 0 0 1
740 247 2 0.527 -19.692903281307366 7.718030908477042 -4.842642951552663 1 -1 0
842 281 2 0.527 -16.45502857164407 4.060336065939831 -4.369979566832464 0 0 0
739 247 1 -1.054 -19.913596188529013 6.884083102788345 -4.427871795390402 1 -1 0
843 281 2 0.527 -16.66847307575432 2.655176944056299 -3.8486273705418625 0 0 0
841 281 1 -1.054 -17.141615932121105 3.4304275367806287 -4.150839013232518 0 0 0
248 83 2 0.527 -15.518087308348308 0.9082560179480215 7.8522035893405135 0 0 0
181 61 1 -1.054 -18.472196298110806 2.4805847329076105 -1.6420238675981373 0 0 0
182 61 2 0.527 -18.611691952312466 1.6388504498171343 -2.075883472405371 0 0 0
176 59 2 0.527 -17.82623079632446 2.878203407798267 -5.8004761177362365 0 0 0
177 59 2 0.527 -17.54513390227564 2.006461314160102 -7.005834829293781 0 0 0
175 59 1 -1.054 -18.106885829334583 2.7193024840554756 -6.701694022471208 0 0 0
1447 483 1 -1.054 -14.710459243498125 1.554049545792349 -3.2293438215640053 0 0 1
247 83 1 -1.054 -15.14344830311635 1.3698822181622479 7.102030637839054 0 0 0
1355 452 2 0.527 -15.556429071300942 5.36497082795314 7.55771219529497 0 0 0
1356 452 2 0.527 -14.597585062759904 6.024281619473543 6.589328218521317 0 0 0
1354 452 1 -1.054 -14.62373013428988 5.49618627125942 7.387226429423627 0 0 0
155 52 2 0.527 -21.122075882999 6.981418749644458 -1.5565823400581156 0 -1 0
154 52 1 -1.054 -20.77942861308111 7.757073447843915 -2.000611789031855 0 -1 0
1019 340 2 0.527 -14.958516898454127 7.781458387876334 -1.5304000742397896 0 -1 1
1018 340 1 -1.054 -15.591882813018458 7.090641716158784 -1.724900360390829 0 -1 1
156 52 2 0.527 -19.894386742140174 7.8621054679451845 -1.6515006603881632 0 -1 0
1133 378 2 0.527 -17.573967210931745 4.471083236378979 -7.447107477398331 0 0 0
1132 378 1 -1.054 -17.136138126863983 5.292837089633844 -7.669000326159613 0 0 0
1134 378 2 0.527 -17.83317980805503 5.850443640422384 -8.01456998747984 0 0 0
1179 393 2 0.527 -15.95098447394454 5.670441880590639 -6.340663698217441 0 0 0
1241 414 2 0.527 -15.901165403649674 5.05240633957964 0.856606392168441 0 0 0
538 180 1 -1.054 -15.928717070449334 1.7741528365341264 -0.9122506583327157 0 0 0
539 180 2 0.527 -16.755004190494862 2.168451650890889 -1.1915147975405933 0 0 0
819 273 2 0.527 -17.47305995420338 7.566438085013004 -1.3580964729768903 0 0 0
1242 414 2 0.527 -15.493374417611935 6.033244038687959 -0.2220520413680811 0 0 0
1260 420 2 0.527 -10.019668699065615 0.6771646630262254 -2.8800789229338415 0 0 0
1239 413 2 0.527 -11.524136931184218 7.132831840568523 -2.2635118736649718 0 0 0
1421 474 2 0.527 -10.684959604776019 5.908308089992822 -7.046042494968042 0 0 0
1420 474 1 -1.054 -9.77946468815139 5.673583549536577 -7.249002894870284 0 0 0
1422 474 2 0.527 -9.328459759855033 6.513000828806716 -7.339461309850314 0 0 0
1052 351 2 0.527 -7.800223618288372 1.8508850010824034 -1.4657566924346828 0 0 0
820 274 1 -1.054 -9.586100304811149 2.1493762522197404 -3.9449046728520107 0 0 1
162 54 2 0.527 -10.364230516513553 5.291423544404662 -1.6159270425190684 0 0 1
904 302 1 -1.054 -7.575474549982687 1.7774270968327013 -5.960651309531576 0 0 0
160 54 1 -1.054 -11.280938913630642 5.179915592753137 -1.8677629047208963 0 0 1
905 302 2 0.527 -7.9652856454696455 0.9647395104751944 -6.2828253076867995 0 0 0
906 302 2 0.527 -7.814713718435913 2.434108066837217 -6.614673610127394 0 0 0
822 274 2 0.527 -8.881661566675236 2.0792770780097296 -4.58915745257418 0 0 1
1085 362 2 0.527 -11.292942281510555 2.836024202196807 -4.025098396439919 0 0 0
1178 393 2 0.527 -14.529992188314385 5.424919647531922 -5.8798606803103315 0 0 0
1177 393 1 -1.054 -15.377277168674995 5.75319502728291 -5.578940658483578 0 0 0
821 274 2 0.527 -9.189885864368796 2.6099327403137327 -3.205235092236947 0 0 1
1294 432 1 -1.054 -12.59354851598629 5.417343328202531 -5.6915944859637095 0 0 1
1296 432 2 0.527 -12.83921795292796 4.753460281481232 -6.335889244990776 0 0 1
1084 362 1 -1.054 -12.09485302864974 3.305886328495676 -3.7962340927652436 0 0 0
1086 362 2 0.527 -12.653937060026777 2.6431136436841136 -3.390811827945856 0 0 0
1295 432 2 0.527 -12.582220086319905 4.9490523359143275 -4.8568573614486805 0 0 1
939 313 2 0.527 -9.496836464275159 2.9154255002021188 7.617859615552371 0 0 -1
937 313 1 -1.054 -8.74603135190149 3.3120543586465487 8.059659382574782 0 0 -1
938 313 2 0.527 -9.110197262421774 4.068574698208208 -7.6674332001282375 0 0 0
161 54 2 0.527 -11.265280285655779 4.490585715994591 -2.5316822096250418 0 0 1
1007 336 2 0.527 -11.519079381750322 1.3159677663044143 0.20201725972571793 0 0 0
1006 336 1 -1.054 -12.357806726787908 1.491340442592545 -0.22458641377611954 0 0 0
1008 336 2 0.527 -12.614377133198568 2.355715653516068 0.09671913002486576 0 0 0
1409 470 2 0.527 -11.663099727322239 4.5280371632048855 1.5114138736822138 0 0 0
839 280 2 0.527 -7.8496982228662056 4.297264011919667 -1.6844164158023487 0 0 0
1410 470 2 0.527 -10.79102811677561 3.9578461644130396 2.609691604704789 0 0 0