LAMMPS data file via write_data, version 2 Aug 2023, timestep = 50000, units = metal

714 atoms
4 atom types
92 bonds
1 bond types
46 angles
1 angle types

-5.512084438507452 26.09766215010596 xlo xhi
-0.12771230207837192 20.71329001367807 ylo yhi
3.211752393088563 17.373825318513106 zlo zhi

Masses

1 28.0855
2 15.9994
3 15.9994
4 1.008

Bond Coeffs # harmonic

1 0 0.9572

Angle Coeffs # harmonic

1 0 104.52

Atoms # full

346 39 2 -0.55 -0.7775314245313468 6.26235175840377 4.74821248232228 2 -1 1
417 47 1 1.1 -1.7194393036273652 6.28170506184689 3.4784914226482204 1 0 0
568 64 1 1.1 -3.93571981320107 5.651606651093496 7.066887742128024 0 1 1
409 46 2 -0.55 -3.23951899799115 5.971722636308004 3.7573570895339534 2 0 1
178 20 2 -0.55 -2.379245956028732 6.126225801449592 7.128007267249378 0 0 1
291 33 1 1.1 -4.473878447463908 5.023912381031954 4.117189776955935 0 0 2
338 38 2 -0.55 -4.37489701329977 4.976306100107901 5.712172480310314 1 0 0
560 63 1 1.1 -0.931547600087207 6.575383785767023 7.73486096504922 0 1 0
432 48 2 -0.55 -4.816139110267543 6.8911165567908235 7.289211364014283 -1 -1 1
422 47 2 -0.55 -4.3024414149221375 4.663151265038123 8.221885373072823 0 2 1
135 15 2 -0.55 -0.45673822079576776 5.305791492836675 8.567906929558129 0 0 -2
475 53 2 -0.55 -4.16980581977555 3.554152366466311 3.5672351356172833 0 0 2
407 46 1 1.1 -3.6372043692505547 3.5999652378630254 9.185998898646828 1 1 0
212 24 2 -0.55 0.3549880304724961 6.936872507168022 6.825371383696031 0 1 1
527 59 2 -0.55 -3.1420165531140203 2.4393540576025723 8.298809434571842 -1 1 1
64 8 1 1.1 -3.7563644175283697 2.049385062234196 3.6449664247998026 2 -1 1
184 21 2 -0.55 -2.536341766995794 1.8704404237166703 4.706457742409032 0 2 0
260 29 2 -0.55 -2.3997410254835243 4.400026834142273 9.862053427407504 -1 0 -1
426 48 1 1.1 -0.8485135677360519 4.655871642023006 9.962219428255525 2 1 1
490 55 2 -0.55 -0.7037666220028879 1.341305286824526 6.587616226777581 1 1 0
447 50 2 -0.55 -5.028802990771643 1.2651279944515343 4.204147640043006 1 1 1
390 44 1 1.1 -3.405066150948562 0.8742001309207685 8.245931142905528 0 1 2
451 51 1 1.1 -1.9441365148312784 0.8412996738382926 5.78489600583024 0 1 -1
139 16 2 -0.55 -3.04173179051616 0.44399261472696694 6.805031490829388 1 1 -1
4 1 2 -0.55 -4.893103070365218 0.49749565069183466 8.501322565718318 0 0 -4
199 23 1 1.1 0.5345120404367709 7.039332526395598 5.226346113006084 1 0 -1
485 54 2 -0.55 -2.4586560888491062 0.29909095050620343 9.332432285408792 -1 0 2
116 13 2 -0.55 -0.11774982946266581 3.2810332830839215 10.137168828067727 1 1 -2
318 36 1 1.1 0.8222520036493691 0.9257678936019378 6.745213061457064 1 -1 2
196 22 2 -0.55 4.630115247858223 5.08019155199482 5.959735429080144 -2 3 2
290 33 1 1.1 5.0024729119863816 6.329540049244992 5.051988061295237 -1 0 1
297 33 2 -0.55 1.7469835624827308 6.209737202896663 4.569652147466084 0 0 0
238 27 2 -0.55 4.029927120553433 6.26996179589906 3.8120825466895565 0 2 0
236 27 1 1.1 2.107618575528798 6.564064175979798 8.632159355950964 0 -1 -2
396 44 2 -0.55 6.472448744680876 6.075730923915448 4.660947340049856 0 0 1
69 8 2 -0.55 3.3403369232736932 3.663134309023649 7.518962506844419 0 1 0
102 12 1 1.1 4.318977141072697 3.5409007632436236 6.299328893046825 0 1 -2
361 41 1 1.1 3.338608877332557 3.8801679544610654 9.06421920208798 -1 0 0
189 21 2 -0.55 2.4351687883453095 5.182545179065425 9.235910076750459 -1 1 0
27 3 2 -0.55 3.768582570501735 2.857720317939954 5.02248714446817 1 1 0
505 57 1 1.1 6.327624694930251 3.652270285739815 9.582994120536995 1 -1 -1
476 53 2 -0.55 4.83437109455982 4.202705489793918 9.555802795484148 -1 1 2
436 49 2 -0.55 5.413340865821883 2.5311350850580046 6.853864586558875 -2 0 1
144 16 2 -0.55 2.919543378863711 2.5341048913165225 9.759743504279117 0 2 -2
563 63 2 -0.55 6.142856447886247 2.139129010920079 9.208573443484024 1 1 2
427 48 2 -0.55 1.5195327637072196 1.7374170205809711 5.617627847234425 2 1 0
514 58 1 1.1 2.7083511754946086 1.8038329950769385 4.547966457630374 1 1 3
298 34 1 1.1 5.68569844847473 1.43805848422296 7.927415066417189 0 -1 1
60 7 2 -0.55 1.4998882143291556 1.2876445613475442 8.106568992097493 0 -1 -2
209 24 1 1.1 2.0526985830177886 1.1713266337955464 9.580206698430501 2 -1 -1
430 48 2 -0.55 6.568223827797245 0.7770322135471317 4.852333457050896 2 1 1
210 24 1 1.1 2.6384992164739494 5.984266806471212 17.364803782366337 2 2 -1
171 19 2 -0.55 3.2612349437838684 0.3460054869808297 4.482900060570996 -1 0 -2
324 36 2 -0.55 7.112734769139507 4.394586303742155 8.401904282754547 0 0 1
287 32 2 -0.55 4.972416226607463 0.10159353257586459 7.907995138125638 -2 1 1
452 51 1 1.1 7.754422181022326 5.140113255510857 4.988489210174698 1 1 2
74 9 1 1.1 8.403256184207079 5.352724070173341 7.979331097086608 0 1 0
301 34 2 -0.55 8.630060161350233 5.282899212439934 3.6356850181446663 0 -2 2
259 29 2 -0.55 8.291507490949556 5.585087663231185 6.441126668794609 -2 0 1
14 2 2 -0.55 9.795861668626262 4.714621028849176 8.277953512610287 -2 0 -2
176 20 2 -0.55 7.355632255383764 3.596817131688611 5.212271435269666 1 -1 1
13 2 2 -0.55 8.069501447856624 6.598377171137669 8.8980495235844 0 1 0
627 81 4 0.5564 11.609420011807607 3.3698957618919527 6.958776921168368 0 0 0
836 151 4 0.5564 11.04607067597762 4.930404899393516 9.437059458063255 0 0 0
75 9 1 1.1 7.165259316521199 2.1851516154092905 4.4419265168526705 0 2 0
360 40 2 -0.55 8.627981194323311 1.949911223460098 3.902053862226057 1 1 0
626 81 4 0.5564 11.927328006027661 2.584710676964057 5.704060074180836 0 0 0
625 81 3 -1.1128 11.201578699869058 2.840885111994408 6.273178275367689 0 0 0
984 200 4 0.5564 10.041204539276118 1.8312001823471264 7.470535425126332 0 1 0
835 151 3 -1.1128 11.824341892946551 4.631411451385288 9.907304329996311 0 0 0
983 200 4 0.5564 10.275828368377132 1.5666621519845898 8.942563442190314 0 1 0
982 200 3 -1.1128 9.630572804737684 1.4479139910123255 8.245587115414649 0 1 0
1467 361 4 0.5564 13.208197401583979 4.392295659681795 8.34469719229028 0 0 0
1470 362 4 0.5564 12.212965007724264 1.3676683483167054 10.024115050192705 0 1 0
1469 362 4 0.5564 11.670914770609235 2.777660246201578 10.124112949595961 0 1 0
1466 361 4 0.5564 13.882426502609107 5.276620558272429 7.317429078121425 0 0 0
1450 356 3 -1.1128 13.857464812092957 6.999143148261094 7.481272705772348 0 0 0
1422 346 4 0.5564 12.36815463347903 4.955625337069181 16.950074684331824 0 0 -1
1465 361 3 -1.1128 13.592479729352538 4.376929588286946 7.4681569300065505 0 0 0
1437 351 4 0.5564 13.690764378169323 3.139853221152569 4.451709733495905 0 0 0
1435 351 3 -1.1128 13.642628712683528 2.457010059701312 5.120769033480611 0 0 0
1436 351 4 0.5564 13.850102603080892 2.9079119124337276 5.939227815246192 0 0 0
496 56 1 1.1 17.401274339400516 3.8830785050961176 8.270386852317207 0 2 2
268 30 2 -0.55 18.216149012464456 3.75344428116979 6.960387720937022 -2 3 0
59 7 2 -0.55 17.59059871476188 3.2342598592941503 4.543911300120256 1 1 0
243 27 2 -0.55 17.63274681068359 4.883088187401583 9.37466301112949 -1 0 1
348 39 2 -0.55 16.477737341075706 2.691123692509432 8.449263746190528 0 0 0
154 18 1 1.1 18.277822276595145 2.6166837615816236 5.840495854623095 -1 0 -1
1475 364 4 0.5564 13.69832866827892 6.344312790614305 4.012010375870598 0 0 0
404 45 2 -0.55 17.403986328846795 1.4240748823836025 6.543554845635518 0 3 1
399 45 1 1.1 16.938156765094007 1.1502762444767956 8.05663863309669 -1 1 0
70 8 2 -0.55 18.265145651554384 1.1141605712114038 8.91290411233007 0 1 -2
1446 354 4 0.5564 14.88494966674029 0.6615017847332986 4.084127724245051 0 1 0
222 25 2 -0.55 13.494775543338294 0.947076597201466 9.087078996403278 0 0 -2
294 33 2 -0.55 19.705687041038697 1.8931176348726626 5.706360813575337 0 1 1
488 55 1 1.1 19.829751396627483 1.3384462367205778 9.14000170286632 0 0 3
1444 354 3 -1.1128 14.801172566391294 -0.11232705743383704 3.5269900227083166 0 1 0
414 46 2 -0.55 15.752704419916162 0.1101558525805835 8.146420698597334 -2 1 2
89 10 2 -0.55 25.590367062332025 5.475228370840674 3.5407522950890344 -3 -1 -1
153 17 2 -0.55 20.905038959160052 5.9359791997919835 4.14673053742176 -1 1 0
90 10 2 -0.55 23.35978026608699 6.2345184322432345 4.504553726183779 -1 -2 2
408 46 1 1.1 22.006266133413124 5.972148617699541 5.256623411691133 0 1 0
95 11 2 -0.55 22.08591217945192 4.519401850118652 5.892710973019949 0 0 4
63 7 2 -0.55 24.254199596950066 3.7355861780054562 6.997239078443559 0 -1 1
271 31 1 1.1 24.281703746984256 3.579123257349534 8.608497616427604 -1 1 0
467 52 2 -0.55 22.70527199364505 3.3805242155543223 8.8625754384801 0 1 2
253 29 1 1.1 23.118123038155286 3.304516598986341 6.009241394917752 1 1 1
277 31 2 -0.55 23.718321652115836 2.9186577197271193 4.618009346590114 -1 1 1
429 48 2 -0.55 20.20926750183272 2.893975504949355 9.256717272022755 -1 -2 -1
456 51 2 -0.55 24.765262557307402 4.645104452808344 9.632096505642199 0 0 1
431 48 2 -0.55 21.44469967163257 5.430904450435614 9.536716671917043 1 -1 -2
237 27 1 1.1 21.474929977029745 3.799733081593226 9.70522219417246 -1 0 0
428 48 2 -0.55 24.98964506558537 2.1922744599256845 8.70608395562654 -2 2 1
464 52 2 -0.55 22.23119463652662 1.9962177224889224 6.40011401703581 -1 0 2
444 50 1 1.1 22.0168750873853 6.789773040479947 10.100698605600792 -1 1 2
28 4 1 1.1 20.930043500922007 1.074378300161644 6.333978912300963 0 0 -2
98 11 2 -0.55 20.63942944616118 0.8058632332819036 7.861223188126172 1 1 1
30 4 1 1.1 25.232672249783686 0.7878451785298287 8.091506107656476 1 0 -1
540 60 2 -0.55 25.073330986351802 0.8229241381192581 6.512672489776425 2 -1 2
57 7 1 1.1 25.527885944805387 0.38132955363552873 5.051932631347221 0 1 1
341 38 2 -0.55 -1.1292103333011676 7.848922096604718 8.631779243449532 2 1 1
103 12 2 -0.55 -2.4570231273620897 9.100428787117657 5.083996924445652 2 -1 -1
136 16 1 1.1 -2.0922997103521417 9.245590555232509 3.5436893533406146 1 1 1
437 49 2 -0.55 -2.75013929298608 9.329537028511378 7.5733128373628205 1 -1 1
128 15 1 1.1 -1.49164060359143 9.447305609410225 8.545930808591699 0 3 -2
461 52 1 1.1 -5.466109809451228 9.7866783133928 9.222910508849369 1 1 0
513 57 2 -0.55 -0.2005081213174967 10.103368794672528 7.918580164100663 0 2 0
17 2 2 -0.55 -0.826652435606687 10.213377393340641 3.5400960317614456 0 -1 0
219 25 1 1.1 -3.1318813215519556 9.96468908941375 6.188862158194306 0 1 -1
351 39 2 -0.55 -4.64186803768983 10.129555946974197 5.6609009674593675 2 -1 -1
83 10 1 1.1 -3.3556715213446657 12.780742747120073 5.921911113905597 1 0 0
15 2 2 -0.55 -2.5868789896618756 11.473441671143847 6.325751861889002 1 -1 1
161 18 2 -0.55 -3.5945973624627747 12.574719641163133 4.380718716425877 1 -1 0
420 47 2 -0.55 -0.6058531193398956 13.622998479969585 7.718150327422459 -3 3 0
245 28 1 1.1 -4.593894205259388 13.145908785754996 3.333363411258095 0 0 0
438 49 2 -0.55 -4.810380345161834 12.84801546880045 6.625507477044578 0 0 2
80 9 2 -0.55 -4.928365238449967 11.119641958477446 8.560585675808634 0 1 0
442 50 1 1.1 0.14594789275452502 13.38274796742236 9.053150751249584 1 -1 1
32 4 2 -0.55 -1.7384898193625768 10.417036332401484 9.820055061140181 0 0 -1
374 42 2 -0.55 -4.393152424061489 8.929792196584023 10.002672132276794 -1 0 1
44 5 2 -0.55 -1.010221932909423 12.928103585943635 10.06953794290142 1 -1 -2
471 53 1 1.1 0.6725106030790317 9.765223717328292 3.629699599359104 0 0 1
522 58 2 -0.55 0.6740598241636389 8.543257470494359 4.693380726051051 0 0 1
375 42 2 -0.55 3.0899840829504064 7.284062490203254 7.687918163921992 0 -1 -1
332 37 2 -0.55 5.698854945288208 7.322129248823515 8.166332408727701 0 0 -1
517 58 2 -0.55 1.5263768313989308 7.515136440701069 9.629438249981005 0 2 2
434 49 1 1.1 6.785948111687877 7.4385859895718704 9.308958075383511 0 0 2
270 30 2 -0.55 4.7860777048221514 7.686295376012296 5.877903049762267 1 -3 0
227 26 1 1.1 4.558064658044249 7.993630048690602 7.356329972827964 -1 2 1
258 29 2 -0.55 4.661748762546451 9.566829954692132 7.657698333752985 -1 0 1
545 61 2 -0.55 2.109153806847432 9.862675497627375 9.007534716482299 0 2 1
213 24 2 -0.55 5.677701770202104 10.117704711334992 3.3306009102665697 0 0 1
336 38 1 1.1 1.2140212221736688 10.77902072784789 8.039852073356252 -1 -2 -1
76 9 2 -0.55 1.622484168927602 10.872738436513101 4.064357903676408 0 -1 1
11 2 1 1.1 5.190369771124014 10.981922175216615 8.266726433436645 1 2 1
285 32 2 -0.55 1.7263864416591448 11.133353665949166 6.6213500093315005 -1 0 -1
311 35 2 -0.55 0.9794936888063536 13.115560484253402 4.967274927337508 0 0 0
504 56 2 -0.55 5.9941264615649406 12.24341270773966 4.915333358908613 0 1 1
412 46 2 -0.55 3.4107627431696286 12.509472497923218 5.211973389011877 -1 0 -2
147 17 1 1.1 4.836729586840813 12.79068686468631 5.82101171762247 -1 1 0
79 9 2 -0.55 4.740189546697298 12.11268495052917 7.280854662100336 0 1 -1
47 6 1 1.1 1.9819004818796147 11.907546381161529 5.255682174987134 0 -1 -1
78 9 2 -0.55 1.0941433579236952 12.136256566446692 8.816108006043502 1 0 0
295 33 2 -0.55 4.947153818944361 11.246575692987765 9.782764918726564 0 -1 -1
575 64 2 -0.55 5.7665359611051255 13.717619083546811 10.007030149449406 0 0 1
307 35 1 1.1 6.7168035010032385 11.188693695998653 3.910028814688828 -1 0 1
54 6 2 -0.55 6.788235144492549 11.113675651273034 8.202858466324253 1 0 1
1451 356 4 0.5564 13.781983624598233 7.016788066612384 6.527216570040943 0 0 0
1415 344 4 0.5564 12.536664842883921 7.8482078881849215 8.451322480002247 0 1 0
1416 344 4 0.5564 12.018686614382567 7.455614241469528 9.81860622420152 0 1 0
1414 344 3 -1.1128 11.828218940289096 8.022262829737125 9.071034144284946 0 1 0
378 42 2 -0.55 7.192885266421419 8.961265373923847 9.391828917101252 0 1 1
159 18 2 -0.55 12.620500135575655 9.249939564913179 4.448346098056003 0 -1 0
395 44 2 -0.55 10.10928943274984 9.502728865066972 5.1787724806417135 -1 1 1
81 9 2 -0.55 8.375620483232717 9.552664390542942 7.172275537066455 1 1 -2
363 41 1 1.1 7.918107964274253 10.099781333766622 8.618167502225361 0 0 0
56 7 1 1.1 11.303916973129692 10.095723917620882 4.290967122125886 1 0 -1
149 17 2 -0.55 7.817000227639299 10.35085686712732 4.723472638318708 1 -1 1
66 8 1 1.1 8.927497770132982 10.223387809549438 5.841048696708127 -1 -2 0
240 27 2 -0.55 9.429817117565168 11.73834843496193 6.154576167790242 0 0 0
352 40 1 1.1 10.400493260312375 12.614878957464052 5.2674429993150165 1 1 -1
33 4 2 -0.55 9.575919257338875 12.978631841696952 4.0143805094400635 1 0 -2
214 24 2 -0.55 11.527135849815737 11.57914036514105 4.7910824362638404 2 -2 0
313 35 2 -0.55 9.059728586877037 10.682966574105698 9.404138635948371 -1 -2 0
867 161 4 0.5564 10.728061286248813 10.713058710341704 9.917673789922699 0 0 0
866 161 4 0.5564 11.73629565494669 9.597025118476484 9.744966866136547 0 0 0
865 161 3 -1.1128 11.620665811065162 10.456749193586619 10.149610122172623 0 0 0
869 162 4 0.5564 13.175234656928744 13.086266762628743 9.171215531137912 0 0 0
870 162 4 0.5564 12.837260231475817 11.610800702056256 9.145361869418752 0 0 0
868 162 3 -1.1128 13.570697715129814 12.22084014968202 9.066919658290335 0 0 0
1472 363 4 0.5564 16.827143360992434 7.5379849883509635 5.069332900710229 0 0 0
1474 364 3 -1.1128 13.955988936841004 7.019407587729651 4.639776288274102 0 0 0
1471 363 3 -1.1128 17.282414763889854 7.493120581012115 5.910134426396798 0 0 0
1452 356 4 0.5564 14.571496790814402 7.605910477370504 7.676781240975753 0 0 0
1476 364 4 0.5564 13.438557433193857 7.786132638768849 4.393546293474075 0 0 0
1473 363 4 0.5564 16.69928443971335 7.941000299521272 6.522992458610774 0 0 0
1427 348 4 0.5564 15.61692842859062 9.512334284021435 8.45301327729874 0 0 0
1426 348 3 -1.1128 15.729671405810441 9.22377417216226 7.547333862115578 0 0 0
1431 349 4 0.5564 15.19770042700784 7.983507078950599 3.982702265527925 0 0 0
1429 349 3 -1.1128 15.834449596540455 8.672112242425126 3.7913771641661085 0 0 0
1430 349 4 0.5564 15.617124784723645 9.376364008958486 4.402139981257419 0 0 0
1428 348 4 0.5564 15.616687202062433 10.018774581916428 7.026333665042509 0 0 0
1433 350 4 0.5564 15.054947293353377 11.89256513872307 5.6660942034700135 0 0 0
1434 350 4 0.5564 14.318590161824048 10.680459880374123 5.136495371170187 0 0 0
132 15 2 -0.55 17.979360217502748 13.437536964326405 4.245070359189974 0 -3 -1
1432 350 3 -1.1128 15.19864782695662 11.02291325751792 5.292880397279307 0 0 0
519 58 2 -0.55 19.249152988906626 12.163532052039953 9.1153914596866 1 1 0
317 36 1 1.1 19.47675667852473 13.57312498629932 4.732427257531738 1 0 -1
177 20 2 -0.55 19.026385376309545 9.5531276843702 9.752232130795004 -2 -1 -1
834 150 4 0.5564 14.82950491790765 11.051281808607833 9.803931989577823 0 0 0
716 111 4 0.5564 14.462209729989912 12.668643136637336 7.596154170834285 0 0 0
715 111 3 -1.1128 14.903557542305945 13.223485493143997 6.953041480693452 0 0 0
832 150 3 -1.1128 15.205344529775692 10.239417518705567 10.144303583152332 0 0 0
717 111 4 0.5564 15.443095412355223 13.815619658445318 7.476976460746701 0 0 0
1410 342 4 0.5564 16.210205075697353 13.477741722322973 3.522006775100404 0 0 0
1408 342 3 -1.1128 15.526564362171063 13.655954939696873 17.03824048799163 0 0 -1
502 56 2 -0.55 21.795247732560025 7.07428651202475 6.328601652257727 0 -1 1
387 43 2 -0.55 19.864533484433256 12.486575980518992 5.832023005809652 -1 0 0
329 37 2 -0.55 24.024231248742865 7.072723106461006 7.4754091657311585 -3 -2 1
460 52 1 1.1 25.98473052671176 12.30039111074463 7.824118735835584 0 -1 -1
92 11 1 1.1 25.451017655609018 7.665770538312783 7.143505421908147 0 2 0
335 38 1 1.1 22.625341208984526 7.842648994452407 7.425299466812569 2 0 0
339 38 2 -0.55 21.947438444072674 7.815192454921464 8.847875494315481 0 -1 1
305 34 2 -0.55 25.45787905896705 8.1003760500032 5.636595942374743 -2 -2 0
535 60 2 -0.55 20.785400313110213 8.300673338835493 3.395793585201937 -1 0 0
497 56 1 1.1 25.765400242817268 9.399031647804378 4.857038044791054 1 -1 0
231 26 2 -0.55 25.55259705746443 8.889772080466548 8.140973997290525 1 1 1
355 40 2 -0.55 23.055115319425035 9.341697223299034 7.076216098834073 1 -1 0
207 23 2 -0.55 25.57361892098266 12.583804191770618 3.49712042561863 0 0 0
200 23 1 1.1 20.419464792230496 9.779867141277725 3.708753401960144 -2 0 0
53 6 2 -0.55 20.141609701007653 10.137982636890552 5.201243055596132 -1 -1 1
491 55 2 -0.55 24.457877155606653 10.30746055757292 5.168403254876919 -2 0 2
385 43 2 -0.55 20.378010849081544 10.518148667001562 7.6534939240046045 0 0 1
309 35 1 1.1 23.573573828908373 10.73157662860771 6.415889557875053 0 -2 0
425 48 1 1.1 20.637027047777114 11.157793157903674 6.242328286858688 1 0 2
357 40 2 -0.55 22.196008539987652 11.425005560558755 6.084709695824335 -3 0 1
96 11 2 -0.55 24.547939523987342 11.68377098326279 7.307799931722208 -1 1 0
61 7 2 -0.55 23.23423833765704 13.464854432949288 3.840172514041258 -1 2 -1
167 19 2 -0.55 20.32614220942677 13.154970509093612 3.4735559923944104 -2 -2 0
472 53 2 -0.55 25.65253339487013 13.385227983165919 8.911135288944507 -1 1 2
398 45 1 1.1 19.834120389948314 13.589781539200708 9.033593674371618 -1 -1 2
506 57 1 1.1 19.931483874404957 10.696196735067005 9.15403598597904 -2 -1 0
198 22 2 -0.55 21.212082042520535 10.911876587309404 10.082361751474279 1 1 0
230 26 2 -0.55 25.05896695984872 10.271467129701804 10.264440767527471 -2 0 -2
484 54 2 -0.55 -2.564918971432045 14.107554887561903 6.233095335123099 0 -1 0
532 60 1 1.1 0.46119878923756485 13.99317348859098 3.6858944112766006 2 0 1
1 1 1 1.1 -1.735307098663656 14.741274124618087 7.409308130544372 1 -1 0
170 19 2 -0.55 -2.6128818152491204 15.04120509205624 8.629907257921095 0 -2 1
256 29 2 -0.55 -4.691468594030488 14.661696762728948 3.6639235878077523 -1 0 -1
188 21 2 -0.55 -0.29639589636149 15.27562789103642 4.089804999209358 -1 -2 0
356 40 2 -0.55 -4.726968620011009 15.78481000587294 6.124377649928169 1 0 3
529 59 2 -0.55 -1.0008952936834004 16.048169244837542 7.070303839388745 0 1 1
551 62 1 1.1 -4.269206527012931 15.89842881309816 4.592449115210556 1 0 -1
88 10 2 -0.55 -2.76477797782169 16.120933921346854 4.243169129757455 -2 1 0
469 53 1 1.1 -1.339967328723197 16.495259421852545 3.8056247958201572 0 1 2
565 63 2 -0.55 -0.035303856687771064 17.192693867897066 9.15165018685186 1 0 -1
129 15 1 1.1 -0.29620063927475315 17.321449352918496 7.586577753491438 1 1 -2
574 64 2 -0.55 -5.175009968782778 17.28736593620311 4.21883406526793 2 0 1
225 25 2 -0.55 -4.66041380858342 17.532528441321343 8.049067215063692 0 1 2
265 30 2 -0.55 -0.9440495073500866 17.837707251591393 4.53793650119413 0 1 3
487 55 1 1.1 -1.6956174886906608 18.7700971467467 5.587107497456773 -1 -1 1
107 12 2 -0.55 -1.2010354110884431 18.51262402049775 7.022537255542524 2 -1 -1
458 51 2 -0.55 -3.2306977222373536 18.433692920092334 5.479015784280658 -2 -1 2
37 5 1 1.1 -4.409209332752188 18.73910510636521 4.491290191215398 1 -1 0
112 13 2 -0.55 -1.5322544028531064 20.290600130121028 5.0850723632833486 1 -1 -3
286 32 2 -0.55 -5.296779361174808 19.798873801422467 5.168235231153476 1 1 -1
433 49 1 1.1 -4.530788667903763 17.985431951827827 9.589401894935676 -2 -1 0
411 46 2 -0.55 -3.2668169703214818 18.899587096101758 9.733251438144363 -1 -1 2
413 46 2 -0.55 -0.752819748007301 19.459844375633757 10.12111565029359 1 2 1
548 61 2 -0.55 4.957421467121295 14.410905543651886 6.0069679505731 0 -2 1
342 38 2 -0.55 1.1908300662714766 14.56009034501108 9.286255808309228 0 0 0
439 49 2 -0.55 2.830942109099347 15.125953763179934 7.120957152949346 0 0 0
163 19 1 1.1 2.5028254979519136 15.098665350561173 8.632025499830416 2 -1 2
567 63 2 -0.55 3.7544475988180106 15.175816982764195 9.482850535017421 0 -1 -1
101 12 1 1.1 5.1963330328252235 15.18662717998284 10.042031246170597 2 0 -2
424 48 1 1.1 3.8858523230706625 15.50690749967317 5.984921035459118 1 -1 -1
114 13 2 -0.55 3.1999422330498684 15.612980466848894 4.566532814893972 0 -1 1
492 55 2 -0.55 5.8988010326670075 16.39801676428388 9.163900938044186 1 1 0
400 45 2 -0.55 4.468135131423277 16.947241786052363 6.330732390324918 -1 0 1
175 20 2 -0.55 1.1435872007045718 17.576658612876713 6.972852697160525 2 0 0
73 9 1 1.1 5.792035587886909 17.80598907206034 6.066163669855849 0 -2 -2
250 28 2 -0.55 0.9939785091922817 20.18714838088825 6.624335490285174 0 -2 0
206 23 2 -0.55 1.2350857826299344 20.405278694502986 3.2851307916840864 -1 -2 1
393 44 2 -0.55 3.135852641134777 19.169951797940406 7.561834718516113 -1 -1 1
241 27 2 -0.55 2.353061281587041 18.83959900728278 5.070550873758329 0 2 0
415 47 1 1.1 2.629306361272088 19.822004662687174 3.8903858329355026 1 0 1
195 22 2 -0.55 5.6904697755728595 19.13206659765735 5.111490475726903 -1 1 -3
524 59 1 1.1 1.9276032756533008 18.902029759582923 6.595236424445756 0 1 -1
246 28 1 1.1 3.9787030447578347 19.946971919528373 8.664636475629985 1 -2 1
262 30 1 1.1 6.147666752117223 17.979311408802673 9.05860039719173 -1 0 1
12 2 1 1.1 6.378924142715204 20.220408842923163 4.128365891529314 0 0 0
278 31 2 -0.55 4.794154920249907 18.820992025073732 9.400225487230422 0 0 0
288 32 2 -0.55 6.391654612915229 18.23888376281802 7.504514662799082 0 2 0
104 12 2 -0.55 3.0314675076318744 -0.08975895411024318 9.57099370690275 2 1 -2
22 3 2 -0.55 6.787788276366277 16.794277345979026 5.363779434255561 1 0 -1
489 55 1 1.1 3.2255223955391688 15.065014203416847 17.269043905770214 0 0 -1
445 50 2 -0.55 11.00330339416843 13.933376437473514 5.905964724090713 1 0 2
25 3 2 -0.55 12.637537065237462 14.572087300444704 9.239443103795674 -2 0 -1
84 10 1 1.1 11.46694784901794 15.54690957499542 9.313341052364724 1 1 1
228 26 1 1.1 10.568694324395473 15.374342491316618 6.256695621062942 0 0 -2
36 4 2 -0.55 8.99062922692302 15.415921064841816 5.891596827718926 0 -2 -2
276 31 2 -0.55 10.823498037339647 15.711761913878524 7.8080995271789435 0 2 2
394 44 2 -0.55 8.472385046426721 16.196006031151594 3.4520180671127636 0 -2 2
65 8 1 1.1 8.246606256035477 16.484639807643635 5.015294173138942 1 0 0
405 45 2 -0.55 11.15999487904611 16.586289010934713 5.378677108150107 -1 0 1
494 55 2 -0.55 9.122768743606025 17.839396109653052 5.330955884316585 0 -1 1
466 52 2 -0.55 11.836252953759901 18.83238590677102 7.898564045782161 0 1 -2
343 39 1 1.1 10.545992250452466 18.04167503859508 4.723119561483744 -1 -1 0
131 15 2 -0.55 7.882999136388742 19.738575958004255 3.7422368157132224 -1 0 0
333 37 2 -0.55 10.204037502765026 18.589420591414978 3.2812017463314196 -1 -2 0
105 12 2 -0.55 11.371981330156974 19.253346024578274 5.418990362959559 0 0 -1
20 3 1 1.1 12.214138853390889 19.59592895019143 6.632896138504806 0 0 -2
254 29 1 1.1 12.634713828692735 18.322064900486442 9.08736382439984 -2 0 1
421 47 2 -0.55 12.042566351255624 17.05540684726368 9.678651646799132 0 0 1
152 17 2 -0.55 7.15951641597766 18.341752354062038 10.248962566154196 -2 -3 -1
746 121 4 0.5564 14.5539752359492 14.25601954564208 5.41875059956016 0 0 0
747 121 4 0.5564 14.583068693685217 14.650450361587982 3.9574248034647503 0 0 0
745 121 3 -1.1128 14.439331491383077 15.005594152189598 4.834604583793129 0 0 0
750 122 4 0.5564 14.875631229437248 16.565221788487474 5.754205763692699 0 0 0
748 122 3 -1.1128 15.19682619580624 17.23215735697947 6.361053685090534 0 0 0
749 122 4 0.5564 15.686512759271654 17.84244112967322 5.809698080481099 0 0 0
1418 345 4 0.5564 16.970178855685052 15.996785496572477 8.70176161574472 0 0 0
1417 345 3 -1.1128 16.27837852317128 15.560371825264347 8.204582327293961 0 0 0
1419 345 4 0.5564 16.06830255997479 16.171481954117922 7.498434777597414 0 0 0
319 36 2 -0.55 13.565020259779603 20.322713303854364 6.950648596448949 1 -1 1
462 52 1 1.1 14.250380133735739 20.68179451435712 8.38861334057834 0 -1 1
134 15 2 -0.55 19.024670392148277 19.146145895086786 6.586507634852941 -1 1 -2
140 16 2 -0.55 13.804340981675843 19.315905167100883 9.25524106215882 2 -1 0
232 26 2 -0.55 18.538380388080416 17.064343226858202 9.267907407929505 -1 0 -2
1439 352 4 0.5564 17.675053819642887 19.03940055714946 5.410336388279438 0 0 1
1438 352 3 -1.1128 16.901918322715797 19.122429706332532 4.852124734762073 0 0 1
1445 354 4 0.5564 15.522559731705373 20.15997572171072 3.796088550911019 0 0 0
1440 352 4 0.5564 16.995847044634594 18.422154611350162 4.206350260366724 0 0 1
221 25 2 -0.55 19.765122693468307 15.127449726099135 5.077566652472103 -1 -1 0
1347 321 4 0.5564 15.040333971470465 15.426136797204812 10.175499489574568 0 0 0
275 31 2 -0.55 20.807382903558693 13.944678576230464 7.914158094943555 -3 0 0
379 43 1 1.1 25.994865599149197 16.599207032534938 7.24323747666095 1 1 -1
186 21 2 -0.55 23.22038012348474 14.157755251229213 8.715149823315523 -2 0 1
162 18 2 -0.55 22.839342774791227 14.564562568094727 6.161641647248596 1 0 -3
10 2 1 1.1 24.646689042366887 14.5593936642423 9.215963946161963 -2 -1 1
541 61 1 1.1 22.209694258739464 14.71571475148616 7.655477565048554 0 2 0
91 11 1 1.1 23.131606519371417 14.795857911718187 4.660557331146763 1 -1 -1
401 45 2 -0.55 25.697598239136514 18.65852939234448 9.909244898733727 0 2 0
185 21 2 -0.55 25.12028104446968 15.751095209205381 8.225982703006258 -1 -1 0
503 56 2 -0.55 24.400887021680848 15.712258701743021 4.432078668953684 0 2 0
85 10 2 -0.55 21.984767036654983 15.836192737330789 4.253990279752001 1 0 -2
133 15 2 -0.55 21.963230665429098 16.228708191680724 7.929653973552225 -1 -2 -1
515 58 1 1.1 20.562062761611998 16.38233930510704 4.635472681405362 -1 -1 1
325 37 1 1.1 24.832892252871126 17.222248172960892 4.671573124221331 0 0 1
512 57 2 -0.55 24.98769357325757 17.366351769851516 6.244301206884877 -3 -1 -2
191 22 1 1.1 21.8658401723978 17.660906390565792 8.530130308898121 -3 -2 1
122 14 2 -0.55 20.573115792081186 17.857810218488655 5.068010465946816 -2 1 1
16 2 2 -0.55 21.450760854641334 18.628402418789076 7.3381129255517195 -1 0 -1
455 51 2 -0.55 24.307731480300593 -0.12239274612783962 4.071212211073133 -1 1 2
479 54 1 1.1 20.51773306399881 19.04099706417177 6.172441380638421 -1 1 0
67 8 2 -0.55 24.174900035866077 18.232605020238672 3.7410723350080084 1 1 -1
419 47 2 -0.55 20.99678504044366 20.483042897224248 5.655504910977498 0 0 0
124 14 2 -0.55 24.28891417402876 20.580991916773137 8.842385685462247 -1 1 -1
7 1 2 -0.55 23.294300870410286 18.17045652762703 9.000888119519962 -3 -2 -2
215 24 2 -0.55 20.883880387262277 17.707374239335202 9.747872286925853 1 -1 0
561 63 1 1.1 24.26131389672017 19.197527580769012 9.746662337479234 -1 -2 2
266 30 2 -0.55 20.084744874582146 14.206790721548083 10.396033461376154 -1 1 1
123 14 2 -0.55 -4.407021566367975 2.9986573256241984 10.370661531472496 0 0 0
8 1 2 -0.55 -1.171421184509256 5.3323896895050735 16.477104920145422 1 0 -2
217 25 1 1.1 -0.06375795457504593 5.892006361094714 12.690108691219711 -1 2 1
234 26 2 -0.55 -0.8607729693640118 5.03399312770956 13.792217265899481 0 3 -2
146 17 1 1.1 -4.048764742775822 6.399918644808878 14.772154740729825 0 1 -3
158 18 2 -0.55 -0.3938610829151898 5.453011327420746 11.205615565567097 0 1 1
498 56 1 1.1 -1.6580259409410363 4.598004615598654 15.1938496367023 1 0 0
508 57 2 -0.55 -3.250301818128562 5.044557983323737 15.163368068088998 0 -1 2
359 40 2 -0.55 -5.318161514692217 5.895631157084274 14.042519582031865 0 1 1
205 23 2 -0.55 -5.387995732856541 6.620927582639758 10.701630171274397 0 1 -3
284 32 2 -0.55 -4.858235970131397 3.862521004707065 12.643820745908137 0 1 1
68 8 2 -0.55 -1.471266041475414 2.9849265793065127 15.4156254244076 -1 0 0
201 23 1 1.1 -4.929951902763609 2.509249682978719 11.750546093772952 -1 1 -1
21 3 1 1.1 -0.0369300332322997 2.1504896403301323 11.215009374195585 0 -1 -1
549 61 2 -0.55 -1.4906388834313542 1.7750811503319532 11.762545103794919 0 0 0
327 37 1 1.1 -1.8418566458045689 1.4646100313796926 15.512141424985888 -1 1 1
376 42 2 -0.55 -3.946779938022485 1.4505373073295504 12.38314654945211 0 2 -1
197 22 2 -0.55 -3.2037733238876203 1.4784699801036254 16.445482471151884 0 -1 -2
43 5 2 -0.55 -2.199405879948251 0.900055577637905 14.0966008532738 -1 1 -1
334 38 1 1.1 -2.5087678236418736 0.8216815319322025 12.52905856869775 0 3 0
547 61 2 -0.55 -0.8125982723022341 0.4647742541869675 16.206758437435088 -1 0 1
483 54 2 -0.55 0.8439097212541975 2.6512753739697983 12.435626280448593 -1 1 0