LAMMPS data file via write_data, version 20 Nov 2019, timestep = 5000

7751 atoms
6 atom types
2754 bonds
1 bond types
1377 angles
1 angle types

-1.7849999999999998e+01 1.7849999999999998e+01 xlo xhi
-1.7849999999999998e+01 1.7849999999999998e+01 ylo yhi
-4.6409999999999997e+01 4.6409999999999997e+01 zlo zhi

Masses

1 15.9994
2 1.008
3 28.99
4 35.453
5 12.011
6 12.011

Pair Coeffs # lj/cut/tip4p/long

1 0.185199 3.1589
2 0 0
3 0.0469 2.4299
4 0.15 4.0447
5 0.07 3.55
6 0.07 3.55

Bond Coeffs # harmonic

1 0 0.9572

Angle Coeffs # harmonic

1 0 104.52

Atoms # full

1801 0 6 0.0000000000000000e+00 -1.7849999999999998e+01 -1.7849999999999998e+01 -4.2720270961236217e+01 0 0 0
1802 0 6 0.0000000000000000e+00 -1.7849999999999998e+01 -1.6064999999999998e+01 -4.0935270961236220e+01 0 0 0
1803 0 6 0.0000000000000000e+00 -1.6064999999999998e+01 -1.7849999999999998e+01 -4.0935270961236220e+01 0 0 0
1804 0 6 0.0000000000000000e+00 -1.6064999999999998e+01 -1.6064999999999998e+01 -4.2720270961236217e+01 0 0 0
1805 0 6 0.0000000000000000e+00 -1.6957500000000000e+01 -1.6957500000000000e+01 -4.1827770961236219e+01 0 0 0
1806 0 6 0.0000000000000000e+00 -1.6957500000000000e+01 -1.5172499999999999e+01 -4.0042770961236222e+01 0 0 0
1807 0 6 0.0000000000000000e+00 -1.5172499999999999e+01 -1.6957500000000000e+01 -4.0042770961236222e+01 0 0 0
1808 0 6 0.0000000000000000e+00 -1.5172499999999999e+01 -1.5172499999999999e+01 -4.1827770961236219e+01 0 0 0
1809 0 6 0.0000000000000000e+00 -1.4279999999999999e+01 -1.7849999999999998e+01 -4.2720270961236217e+01 0 0 0
1810 0 6 0.0000000000000000e+00 -1.4279999999999999e+01 -1.6064999999999998e+01 -4.0935270961236220e+01 0 0 0
1811 0 6 0.0000000000000000e+00 -1.2494999999999999e+01 -1.7849999999999998e+01 -4.0935270961236220e+01 0 0 0
1812 0 6 0.0000000000000000e+00 -1.2494999999999999e+01 -1.6064999999999998e+01 -4.2720270961236217e+01 0 0 0
1813 0 6 0.0000000000000000e+00 -1.3387499999999999e+01 -1.6957500000000000e+01 -4.1827770961236219e+01 0 0 0
1814 0 6 0.0000000000000000e+00 -1.3387499999999999e+01 -1.5172499999999999e+01 -4.0042770961236222e+01 0 0 0
1815 0 6 0.0000000000000000e+00 -1.1602499999999999e+01 -1.6957500000000000e+01 -4.0042770961236222e+01 0 0 0
1816 0 6 0.0000000000000000e+00 -1.1602499999999999e+01 -1.5172499999999999e+01 -4.1827770961236219e+01 0 0 0
1817 0 6 0.0000000000000000e+00 -1.0709999999999999e+01 -1.7849999999999998e+01 -4.2720270961236217e+01 0 0 0
1818 0 6 0.0000000000000000e+00 -1.0709999999999999e+01 -1.6064999999999998e+01 -4.0935270961236220e+01 0 0 0
1821 0 6 0.0000000000000000e+00 -9.8174999999999990e+00 -1.6957500000000000e+01 -4.1827770961236219e+01 0 0 0
1822 0 6 0.0000000000000000e+00 -9.8174999999999990e+00 -1.5172499999999999e+01 -4.0042770961236222e+01 0 0 0
1881 0 6 0.0000000000000000e+00 -1.7849999999999998e+01 -1.4279999999999999e+01 -4.2720270961236217e+01 0 0 0
1882 0 6 0.0000000000000000e+00 -1.7849999999999998e+01 -1.2494999999999999e+01 -4.0935270961236220e+01 0 0 0
1883 0 6 0.0000000000000000e+00 -1.6064999999999998e+01 -1.4279999999999999e+01 -4.0935270961236220e+01 0 0 0
1884 0 6 0.0000000000000000e+00 -1.6064999999999998e+01 -1.2494999999999999e+01 -4.2720270961236217e+01 0 0 0
1885 0 6 0.0000000000000000e+00 -1.6957500000000000e+01 -1.3387499999999999e+01 -4.1827770961236219e+01 0 0 0
1886 0 6 0.0000000000000000e+00 -1.6957500000000000e+01 -1.1602499999999999e+01 -4.0042770961236222e+01 0 0 0
1887 0 6 0.0000000000000000e+00 -1.5172499999999999e+01 -1.3387499999999999e+01 -4.0042770961236222e+01 0 0 0
1888 0 6 0.0000000000000000e+00 -1.5172499999999999e+01 -1.1602499999999999e+01 -4.1827770961236219e+01 0 0 0
1889 0 6 0.0000000000000000e+00 -1.4279999999999999e+01 -1.4279999999999999e+01 -4.2720270961236217e+01 0 0 0
1890 0 6 0.0000000000000000e+00 -1.4279999999999999e+01 -1.2494999999999999e+01 -4.0935270961236220e+01 0 0 0
1891 0 6 0.0000000000000000e+00 -1.2494999999999999e+01 -1.4279999999999999e+01 -4.0935270961236220e+01 0 0 0
1892 0 6 0.0000000000000000e+00 -1.2494999999999999e+01 -1.2494999999999999e+01 -4.2720270961236217e+01 0 0 0
1893 0 6 0.0000000000000000e+00 -1.3387499999999999e+01 -1.3387499999999999e+01 -4.1827770961236219e+01 0 0 0
1894 0 6 0.0000000000000000e+00 -1.3387499999999999e+01 -1.1602499999999999e+01 -4.0042770961236222e+01 0 0 0
1895 0 6 0.0000000000000000e+00 -1.1602499999999999e+01 -1.3387499999999999e+01 -4.0042770961236222e+01 0 0 0
1896 0 6 0.0000000000000000e+00 -1.1602499999999999e+01 -1.1602499999999999e+01 -4.1827770961236219e+01 0 0 0
1897 0 6 0.0000000000000000e+00 -1.0709999999999999e+01 -1.4279999999999999e+01 -4.2720270961236217e+01 0 0 0
1898 0 6 0.0000000000000000e+00 -1.0709999999999999e+01 -1.2494999999999999e+01 -4.0935270961236220e+01 0 0 0
1901 0 6 0.0000000000000000e+00 -9.8174999999999990e+00 -1.3387499999999999e+01 -4.1827770961236219e+01 0 0 0
1902 0 6 0.0000000000000000e+00 -9.8174999999999990e+00 -1.1602499999999999e+01 -4.0042770961236222e+01 0 0 0
1961 0 6 0.0000000000000000e+00 -1.7849999999999998e+01 -1.0709999999999999e+01 -4.2720270961236217e+01 0 0 0
1963 0 6 0.0000000000000000e+00 -1.6064999999999998e+01 -1.0709999999999999e+01 -4.0935270961236220e+01 0 0 0
1965 0 6 0.0000000000000000e+00 -1.6957500000000000e+01 -9.8174999999999990e+00 -4.1827770961236219e+01 0 0 0
1967 0 6 0.0000000000000000e+00 -1.5172499999999999e+01 -9.8174999999999990e+00 -4.0042770961236222e+01 0 0 0
1969 0 6 0.0000000000000000e+00 -1.4279999999999999e+01 -1.0709999999999999e+01 -4.2720270961236217e+01 0 0 0
1971 0 6 0.0000000000000000e+00 -1.2494999999999999e+01 -1.0709999999999999e+01 -4.0935270961236220e+01 0 0 0
1973 0 6 0.0000000000000000e+00 -1.3387499999999999e+01 -9.8174999999999990e+00 -4.1827770961236219e+01 0 0 0
1975 0 6 0.0000000000000000e+00 -1.1602499999999999e+01 -9.8174999999999990e+00 -4.0042770961236222e+01 0 0 0
1977 0 6 0.0000000000000000e+00 -1.0709999999999999e+01 -1.0709999999999999e+01 -4.2720270961236217e+01 0 0 0
1981 0 6 0.0000000000000000e+00 -9.8174999999999990e+00 -9.8174999999999990e+00 -4.1827770961236219e+01 0 0 0
2601 0 6 0.0000000000000000e+00 -1.7849999999999998e+01 -1.7849999999999998e+01 -3.9150270961236224e+01 0 0 0
2604 0 6 0.0000000000000000e+00 -1.6064999999999998e+01 -1.6064999999999998e+01 -3.9150270961236224e+01 0 0 0
2609 0 6 0.0000000000000000e+00 -1.4279999999999999e+01 -1.7849999999999998e+01 -3.9150270961236224e+01 0 0 0
2612 0 6 0.0000000000000000e+00 -1.2494999999999999e+01 -1.6064999999999998e+01 -3.9150270961236224e+01 0 0 0
2617 0 6 0.0000000000000000e+00 -1.0709999999999999e+01 -1.7849999999999998e+01 -3.9150270961236224e+01 0 0 0
2681 0 6 0.0000000000000000e+00 -1.7849999999999998e+01 -1.4279999999999999e+01 -3.9150270961236224e+01 0 0 0
2684 0 6 0.0000000000000000e+00 -1.6064999999999998e+01 -1.2494999999999999e+01 -3.9150270961236224e+01 0 0 0
2689 0 6 0.0000000000000000e+00 -1.4279999999999999e+01 -1.4279999999999999e+01 -3.9150270961236224e+01 0 0 0
2692 0 6 0.0000000000000000e+00 -1.2494999999999999e+01 -1.2494999999999999e+01 -3.9150270961236224e+01 0 0 0
2697 0 6 0.0000000000000000e+00 -1.0709999999999999e+01 -1.4279999999999999e+01 -3.9150270961236224e+01 0 0 0
2761 0 6 0.0000000000000000e+00 -1.7849999999999998e+01 -1.0709999999999999e+01 -3.9150270961236224e+01 0 0 0
2769 0 6 0.0000000000000000e+00 -1.4279999999999999e+01 -1.0709999999999999e+01 -3.9150270961236224e+01 0 0 0
2777 0 6 0.0000000000000000e+00 -1.0709999999999999e+01 -1.0709999999999999e+01 -3.9150270961236224e+01 0 0 0
1819 0 6 0.0000000000000000e+00 -8.9249999999999989e+00 -1.7849999999999998e+01 -4.0935270961236220e+01 0 0 0
1820 0 6 0.0000000000000000e+00 -8.9249999999999989e+00 -1.6064999999999998e+01 -4.2720270961236217e+01 0 0 0
1823 0 6 0.0000000000000000e+00 -8.0324999999999989e+00 -1.6957500000000000e+01 -4.0042770961236222e+01 0 0 0
1824 0 6 0.0000000000000000e+00 -8.0324999999999989e+00 -1.5172499999999999e+01 -4.1827770961236219e+01 0 0 0
1825 0 6 0.0000000000000000e+00 -7.1399999999999997e+00 -1.7849999999999998e+01 -4.2720270961236217e+01 0 0 0
1826 0 6 0.0000000000000000e+00 -7.1399999999999997e+00 -1.6064999999999998e+01 -4.0935270961236220e+01 0 0 0
1827 0 6 0.0000000000000000e+00 -5.3549999999999995e+00 -1.7849999999999998e+01 -4.0935270961236220e+01 0 0 0
1828 0 6 0.0000000000000000e+00 -5.3549999999999995e+00 -1.6064999999999998e+01 -4.2720270961236217e+01 0 0 0
1829 0 6 0.0000000000000000e+00 -6.2474999999999996e+00 -1.6957500000000000e+01 -4.1827770961236219e+01 0 0 0
1830 0 6 0.0000000000000000e+00 -6.2474999999999996e+00 -1.5172499999999999e+01 -4.0042770961236222e+01 0 0 0
1831 0 6 0.0000000000000000e+00 -4.4624999999999995e+00 -1.6957500000000000e+01 -4.0042770961236222e+01 0 0 0
1832 0 6 0.0000000000000000e+00 -4.4624999999999995e+00 -1.5172499999999999e+01 -4.1827770961236219e+01 0 0 0
1833 0 6 0.0000000000000000e+00 -3.5699999999999998e+00 -1.7849999999999998e+01 -4.2720270961236217e+01 0 0 0
1834 0 6 0.0000000000000000e+00 -3.5699999999999998e+00 -1.6064999999999998e+01 -4.0935270961236220e+01 0 0 0
1835 0 6 0.0000000000000000e+00 -1.7849999999999999e+00 -1.7849999999999998e+01 -4.0935270961236220e+01 0 0 0
1836 0 6 0.0000000000000000e+00 -1.7849999999999999e+00 -1.6064999999999998e+01 -4.2720270961236217e+01 0 0 0
1837 0 6 0.0000000000000000e+00 -2.6774999999999998e+00 -1.6957500000000000e+01 -4.1827770961236219e+01 0 0 0
1838 0 6 0.0000000000000000e+00 -2.6774999999999998e+00 -1.5172499999999999e+01 -4.0042770961236222e+01 0 0 0
1839 0 6 0.0000000000000000e+00 -8.9249999999999996e-01 -1.6957500000000000e+01 -4.0042770961236222e+01 0 0 0
1840 0 6 0.0000000000000000e+00 -8.9249999999999996e-01 -1.5172499999999999e+01 -4.1827770961236219e+01 0 0 0
1899 0 6 0.0000000000000000e+00 -8.9249999999999989e+00 -1.4279999999999999e+01 -4.0935270961236220e+01 0 0 0
1900 0 6 0.0000000000000000e+00 -8.9249999999999989e+00 -1.2494999999999999e+01 -4.2720270961236217e+01 0 0 0
1903 0 6 0.0000000000000000e+00 -8.0324999999999989e+00 -1.3387499999999999e+01 -4.0042770961236222e+01 0 0 0
1904 0 6 0.0000000000000000e+00 -8.0324999999999989e+00 -1.1602499999999999e+01 -4.1827770961236219e+01 0 0 0
1905 0 6 0.0000000000000000e+00 -7.1399999999999997e+00 -1.4279999999999999e+01 -4.2720270961236217e+01 0 0 0
1906 0 6 0.0000000000000000e+00 -7.1399999999999997e+00 -1.2494999999999999e+01 -4.0935270961236220e+01 0 0 0
1907 0 6 0.0000000000000000e+00 -5.3549999999999995e+00 -1.4279999999999999e+01 -4.0935270961236220e+01 0 0 0
1908 0 6 0.0000000000000000e+00 -5.3549999999999995e+00 -1.2494999999999999e+01 -4.2720270961236217e+01 0 0 0
1909 0 6 0.0000000000000000e+00 -6.2474999999999996e+00 -1.3387499999999999e+01 -4.1827770961236219e+01 0 0 0
1910 0 6 0.0000000000000000e+00 -6.2474999999999996e+00 -1.1602499999999999e+01 -4.0042770961236222e+01 0 0 0
1911 0 6 0.0000000000000000e+00 -4.4624999999999995e+00 -1.3387499999999999e+01 -4.0042770961236222e+01 0 0 0
1912 0 6 0.0000000000000000e+00 -4.4624999999999995e+00 -1.1602499999999999e+01 -4.1827770961236219e+01 0 0 0
1913 0 6 0.0000000000000000e+00 -3.5699999999999998e+00 -1.4279999999999999e+01 -4.2720270961236217e+01 0 0 0
1914 0 6 0.0000000000000000e+00 -3.5699999999999998e+00 -1.2494999999999999e+01 -4.0935270961236220e+01 0 0 0
1915 0 6 0.0000000000000000e+00 -1.7849999999999999e+00 -1.4279999999999999e+01 -4.0935270961236220e+01 0 0 0
1916 0 6 0.0000000000000000e+00 -1.7849999999999999e+00 -1.2494999999999999e+01 -4.2720270961236217e+01 0 0 0
1917 0 6 0.0000000000000000e+00 -2.6774999999999998e+00 -1.3387499999999999e+01 -4.1827770961236219e+01 0 0 0
1918 0 6 0.0000000000000000e+00 -2.6774999999999998e+00 -1.1602499999999999e+01 -4.0042770961236222e+01 0 0 0
1919 0 6 0.0000000000000000e+00 -8.9249999999999996e-01 -1.3387499999999999e+01 -4.0042770961236222e+01 0 0 0
1920 0 6 0.0000000000000000e+00 -8.9249999999999996e-01 -1.1602499999999999e+01 -4.1827770961236219e+01 0 0 0
1979 0 6 0.0000000000000000e+00 -8.9249999999999989e+00 -1.0709999999999999e+01 -4.0935270961236220e+01 0 0 0
1983 0 6 0.0000000000000000e+00 -8.0324999999999989e+00 -9.8174999999999990e+00 -4.0042770961236222e+01 0 0 0
1985 0 6 0.0000000000000000e+00 -7.1399999999999997e+00 -1.0709999999999999e+01 -4.2720270961236217e+01 0 0 0
1987 0 6 0.0000000000000000e+00 -5.3549999999999995e+00 -1.0709999999999999e+01 -4.0935270961236220e+01 0 0 0
1989 0 6 0.0000000000000000e+00 -6.2474999999999996e+00 -9.8174999999999990e+00 -4.1827770961236219e+01 0 0 0
1991 0 6 0.0000000000000000e+00 -4.4624999999999995e+00 -9.8174999999999990e+00 -4.0042770961236222e+01 0 0 0
1993 0 6 0.0000000000000000e+00 -3.5699999999999998e+00 -1.0709999999999999e+01 -4.2720270961236217e+01 0 0 0
1995 0 6 0.0000000000000000e+00 -1.7849999999999999e+00 -1.0709999999999999e+01 -4.0935270961236220e+01 0 0 0
1997 0 6 0.0000000000000000e+00 -2.6774999999999998e+00 -9.8174999999999990e+00 -4.1827770961236219e+01 0 0 0
1999 0 6 0.0000000000000000e+00 -8.9249999999999996e-01 -9.8174999999999990e+00 -4.0042770961236222e+01 0 0 0
2620 0 6 0.0000000000000000e+00 -8.9249999999999989e+00 -1.6064999999999998e+01 -3.9150270961236224e+01 0 0 0
2625 0 6 0.0000000000000000e+00 -7.1399999999999997e+00 -1.7849999999999998e+01 -3.9150270961236224e+01 0 0 0
2628 0 6 0.0000000000000000e+00 -5.3549999999999995e+00 -1.6064999999999998e+01 -3.9150270961236224e+01 0 0 0
2633 0 6 0.0000000000000000e+00 -3.5699999999999998e+00 -1.7849999999999998e+01 -3.9150270961236224e+01 0 0 0
2636 0 6 0.0000000000000000e+00 -1.7849999999999999e+00 -1.6064999999999998e+01 -3.9150270961236224e+01 0 0 0
2700 0 6 0.0000000000000000e+00 -8.9249999999999989e+00 -1.2494999999999999e+01 -3.9150270961236224e+01 0 0 0
2705 0 6 0.0000000000000000e+00 -7.1399999999999997e+00 -1.4279999999999999e+01 -3.9150270961236224e+01 0 0 0
2708 0 6 0.0000000000000000e+00 -5.3549999999999995e+00 -1.2494999999999999e+01 -3.9150270961236224e+01 0 0 0
2713 0 6 0.0000000000000000e+00 -3.5699999999999998e+00 -1.4279999999999999e+01 -3.9150270961236224e+01 0 0 0
2716 0 6 0.0000000000000000e+00 -1.7849999999999999e+00 -1.2494999999999999e+01 -3.9150270961236224e+01 0 0 0
2785 0 6 0.0000000000000000e+00 -7.1399999999999997e+00 -1.0709999999999999e+01 -3.9150270961236224e+01 0 0 0
2793 0 6 0.0000000000000000e+00 -3.5699999999999998e+00 -1.0709999999999999e+01 -3.9150270961236224e+01 0 0 0
1841 0 6 0.0000000000000000e+00 0.0000000000000000e+00 -1.7849999999999998e+01 -4.2720270961236217e+01 0 0 0
1842 0 6 0.0000000000000000e+00 0.0000000000000000e+00 -1.6064999999999998e+01 -4.0935270961236220e+01 0 0 0
1843 0 6 0.0000000000000000e+00 1.7849999999999999e+00 -1.7849999999999998e+01 -4.0935270961236220e+01 0 0 0
1844 0 6 0.0000000000000000e+00 1.7849999999999999e+00 -1.6064999999999998e+01 -4.2720270961236217e+01 0 0 0
1845 0 6 0.0000000000000000e+00 8.9249999999999996e-01 -1.6957500000000000e+01 -4.1827770961236219e+01 0 0 0
1846 0 6 0.0000000000000000e+00 8.9249999999999996e-01 -1.5172499999999999e+01 -4.0042770961236222e+01 0 0 0
1847 0 6 0.0000000000000000e+00 2.6774999999999998e+00 -1.6957500000000000e+01 -4.0042770961236222e+01 0 0 0
1848 0 6 0.0000000000000000e+00 2.6774999999999998e+00 -1.5172499999999999e+01 -4.1827770961236219e+01 0 0 0
1849 0 6 0.0000000000000000e+00 3.5699999999999998e+00 -1.7849999999999998e+01 -4.2720270961236217e+01 0 0 0
1850 0 6 0.0000000000000000e+00 3.5699999999999998e+00 -1.6064999999999998e+01 -4.0935270961236220e+01 0 0 0
1851 0 6 0.0000000000000000e+00 5.3549999999999995e+00 -1.7849999999999998e+01 -4.0935270961236220e+01 0 0 0
1852 0 6 0.0000000000000000e+00 5.3549999999999995e+00 -1.6064999999999998e+01 -4.2720270961236217e+01 0 0 0
1853 0 6 0.0000000000000000e+00 4.4624999999999995e+00 -1.6957500000000000e+01 -4.1827770961236219e+01 0 0 0
1854 0 6 0.0000000000000000e+00 4.4624999999999995e+00 -1.5172499999999999e+01 -4.0042770961236222e+01 0 0 0
1855 0 6 0.0000000000000000e+00 6.2474999999999996e+00 -1.6957500000000000e+01 -4.0042770961236222e+01 0 0 0
1856 0 6 0.0000000000000000e+00 6.2474999999999996e+00 -1.5172499999999999e+01 -4.1827770961236219e+01 0 0 0
1857 0 6 0.0000000000000000e+00 7.1399999999999997e+00 -1.7849999999999998e+01 -4.2720270961236217e+01 0 0 0
1858 0 6 0.0000000000000000e+00 7.1399999999999997e+00 -1.6064999999999998e+01 -4.0935270961236220e+01 0 0 0
1861 0 6 0.0000000000000000e+00 8.0324999999999989e+00 -1.6957500000000000e+01 -4.1827770961236219e+01 0 0 0
1862 0 6 0.0000000000000000e+00 8.0324999999999989e+00 -1.5172499999999999e+01 -4.0042770961236222e+01 0 0 0
1921 0 6 0.0000000000000000e+00 0.0000000000000000e+00 -1.4279999999999999e+01 -4.2720270961236217e+01 0 0 0
1922 0 6 0.0000000000000000e+00 0.0000000000000000e+00 -1.2494999999999999e+01 -4.0935270961236220e+01 0 0 0
1923 0 6 0.0000000000000000e+00 1.7849999999999999e+00 -1.4279999999999999e+01 -4.0935270961236220e+01 0 0 0
1924 0 6 0.0000000000000000e+00 1.7849999999999999e+00 -1.2494999999999999e+01 -4.2720270961236217e+01 0 0 0
1925 0 6 0.0000000000000000e+00 8.9249999999999996e-01 -1.3387499999999999e+01 -4.1827770961236219e+01 0 0 0
1926 0 6 0.0000000000000000e+00 8.9249999999999996e-01 -1.1602499999999999e+01 -4.0042770961236222e+01 0 0 0
1927 0 6 0.0000000000000000e+00 2.6774999999999998e+00 -1.3387499999999999e+01 -4.0042770961236222e+01 0 0 0
1928 0 6 0.0000000000000000e+00 2.6774999999999998e+00 -1.1602499999999999e+01 -4.1827770961236219e+01 0 0 0
1929 0 6 0.0000000000000000e+00 3.5699999999999998e+00 -1.4279999999999999e+01 -4.2720270961236217e+01 0 0 0
1930 0 6 0.0000000000000000e+00 3.5699999999999998e+00 -1.2494999999999999e+01 -4.0935270961236220e+01 0 0 0
1931 0 6 0.0000000000000000e+00 5.3549999999999995e+00 -1.4279999999999999e+01 -4.0935270961236220e+01 0 0 0
1932 0 6 0.0000000000000000e+00 5.3549999999999995e+00 -1.2494999999999999e+01 -4.2720270961236217e+01 0 0 0
1933 0 6 0.0000000000000000e+00 4.4624999999999995e+00 -1.3387499999999999e+01 -4.1827770961236219e+01 0 0 0
1934 0 6 0.0000000000000000e+00 4.4624999999999995e+00 -1.1602499999999999e+01 -4.0042770961236222e+01 0 0 0
1935 0 6 0.0000000000000000e+00 6.2474999999999996e+00 -1.3387499999999999e+01 -4.0042770961236222e+01 0 0 0
1936 0 6 0.0000000000000000e+00 6.2474999999999996e+00 -1.1602499999999999e+01 -4.1827770961236219e+01 0 0 0
1937 0 6 0.0000000000000000e+00 7.1399999999999997e+00 -1.4279999999999999e+01 -4.2720270961236217e+01 0 0 0
1938 0 6 0.0000000000000000e+00 7.1399999999999997e+00 -1.2494999999999999e+01 -4.0935270961236220e+01 0 0 0
1941 0 6 0.0000000000000000e+00 8.0324999999999989e+00 -1.3387499999999999e+01 -4.1827770961236219e+01 0 0 0
1942 0 6 0.0000000000000000e+00 8.0324999999999989e+00 -1.1602499999999999e+01 -4.0042770961236222e+01 0 0 0
2001 0 6 0.0000000000000000e+00 0.0000000000000000e+00 -1.0709999999999999e+01 -4.2720270961236217e+01 0 0 0
2003 0 6 0.0000000000000000e+00 1.7849999999999999e+00 -1.0709999999999999e+01 -4.0935270961236220e+01 0 0 0
2005 0 6 0.0000000000000000e+00 8.9249999999999996e-01 -9.8174999999999990e+00 -4.1827770961236219e+01 0 0 0
2007 0 6 0.0000000000000000e+00 2.6774999999999998e+00 -9.8174999999999990e+00 -4.0042770961236222e+01 0 0 0
2009 0 6 0.0000000000000000e+00 3.5699999999999998e+00 -1.0709999999999999e+01 -4.2720270961236217e+01 0 0 0
2011 0 6 0.0000000000000000e+00 5.3549999999999995e+00 -1.0709999999999999e+01 -4.0935270961236220e+01 0 0 0
2013 0 6 0.0000000000000000e+00 4.4624999999999995e+00 -9.8174999999999990e+00 -4.1827770961236219e+01 0 0 0
2015 0 6 0.0000000000000000e+00 6.2474999999999996e+00 -9.8174999999999990e+00 -4.0042770961236222e+01 0 0 0
2017 0 6 0.0000000000000000e+00 7.1399999999999997e+00 -1.0709999999999999e+01 -4.2720270961236217e+01 0 0 0
2021 0 6 0.0000000000000000e+00 8.0324999999999989e+00 -9.8174999999999990e+00 -4.1827770961236219e+01 0 0 0
2641 0 6 0.0000000000000000e+00 0.0000000000000000e+00 -1.7849999999999998e+01 -3.9150270961236224e+01 0 0 0
2644 0 6 0.0000000000000000e+00 1.7849999999999999e+00 -1.6064999999999998e+01 -3.9150270961236224e+01 0 0 0
2649 0 6 0.0000000000000000e+00 3.5699999999999998e+00 -1.7849999999999998e+01 -3.9150270961236224e+01 0 0 0
2652 0 6 0.0000000000000000e+00 5.3549999999999995e+00 -1.6064999999999998e+01 -3.9150270961236224e+01 0 0 0
2657 0 6 0.0000000000000000e+00 7.1399999999999997e+00 -1.7849999999999998e+01 -3.9150270961236224e+01 0 0 0
2721 0 6 0.0000000000000000e+00 0.0000000000000000e+00 -1.4279999999999999e+01 -3.9150270961236224e+01 0 0 0
2724 0 6 0.0000000000000000e+00 1.7849999999999999e+00 -1.2494999999999999e+01 -3.9150270961236224e+01 0 0 0
2729 0 6 0.0000000000000000e+00 3.5699999999999998e+00 -1.4279999999999999e+01 -3.9150270961236224e+01 0 0 0
2732 0 6 0.0000000000000000e+00 5.3549999999999995e+00 -1.2494999999999999e+01 -3.9150270961236224e+01 0 0 0
2737 0 6 0.0000000000000000e+00 7.1399999999999997e+00 -1.4279999999999999e+01 -3.9150270961236224e+01 0 0 0
2801 0 6 0.0000000000000000e+00 0.0000000000000000e+00 -1.0709999999999999e+01 -3.9150270961236224e+01 0 0 0
2809 0 6 0.0000000000000000e+00 3.5699999999999998e+00 -1.0709999999999999e+01 -3.9150270961236224e+01 0 0 0
2817 0 6 0.0000000000000000e+00 7.1399999999999997e+00 -1.0709999999999999e+01 -3.9150270961236224e+01 0 0 0
1859 0 6 0.0000000000000000e+00 8.9249999999999989e+00 -1.7849999999999998e+01 -4.0935270961236220e+01 0 0 0
1860 0 6 0.0000000000000000e+00 8.9249999999999989e+00 -1.6064999999999998e+01 -4.2720270961236217e+01 0 0 0
1863 0 6 0.0000000000000000e+00 9.8174999999999990e+00 -1.6957500000000000e+01 -4.0042770961236222e+01 0 0 0
1864 0 6 0.0000000000000000e+00 9.8174999999999990e+00 -1.5172499999999999e+01 -4.1827770961236219e+01 0 0 0
1865 0 6 0.0000000000000000e+00 1.0709999999999999e+01 -1.7849999999999998e+01 -4.2720270961236217e+01 0 0 0
1866 0 6 0.0000000000000000e+00 1.0709999999999999e+01 -1.6064999999999998e+01 -4.0935270961236220e+01 0 0 0
1867 0 6 0.0000000000000000e+00 1.2494999999999999e+01 -1.7849999999999998e+01 -4.0935270961236220e+01 0 0 0
1868 0 6 0.0000000000000000e+00 1.2494999999999999e+01 -1.6064999999999998e+01 -4.2720270961236217e+01 0 0 0
1869 0 6 0.0000000000000000e+00 1.1602499999999999e+01 -1.6957500000000000e+01 -4.1827770961236219e+01 0 0 0
1870 0 6 0.0000000000000000e+00 1.1602499999999999e+01 -1.5172499999999999e+01 -4.0042770961236222e+01 0 0 0
1871 0 6 0.0000000000000000e+00 1.3387499999999999e+01 -1.6957500000000000e+01 -4.0042770961236222e+01 0 0 0
1872 0 6 0.0000000000000000e+00 1.3387499999999999e+01 -1.5172499999999999e+01 -4.1827770961236219e+01 0 0 0
1873 0 6 0.0000000000000000e+00 1.4279999999999999e+01 -1.7849999999999998e+01 -4.2720270961236217e+01 0 0 0
1874 0 6 0.0000000000000000e+00 1.4279999999999999e+01 -1.6064999999999998e+01 -4.0935270961236220e+01 0 0 0
1875 0 6 0.0000000000000000e+00 1.6064999999999998e+01 -1.7849999999999998e+01 -4.0935270961236220e+01 0 0 0
1876 0 6 0.0000000000000000e+00 1.6064999999999998e+01 -1.6064999999999998e+01 -4.2720270961236217e+01 0 0 0
1877 0 6 0.0000000000000000e+00 1.5172499999999999e+01 -1.6957500000000000e+01 -4.1827770961236219e+01 0 0 0
1878 0 6 0.0000000000000000e+00 1.5172499999999999e+01 -1.5172499999999999e+01 -4.0042770961236222e+01 0 0 0
1879 0 6 0.0000000000000000e+00 1.6957500000000000e+01 -1.6957500000000000e+01 -4.0042770961236222e+01 0 0 0
1880 0 6 0.0000000000000000e+00 1.6957500000000000e+01 -1.5172499999999999e+01 -4.1827770961236219e+01 0 0 0
1939 0 6 0.0000000000000000e+00 8.9249999999999989e+00 -1.4279999999999999e+01 -4.0935270961236220e+01 0 0 0
1940 0 6 0.0000000000000000e+00 8.9249999999999989e+00 -1.2494999999999999e+01 -4.2720270961236217e+01 0 0 0
1943 0 6 0.0000000000000000e+00 9.8174999999999990e+00 -1.3387499999999999e+01 -4.0042770961236222e+01 0 0 0
1944 0 6 0.0000000000000000e+00 9.8174999999999990e+00 -1.1602499999999999e+01 -4.1827770961236219e+01 0 0 0
1945 0 6 0.0000000000000000e+00 1.0709999999999999e+01 -1.4279999999999999e+01 -4.2720270961236217e+01 0 0 0
1946 0 6 0.0000000000000000e+00 1.0709999999999999e+01 -1.2494999999999999e+01 -4.0935270961236220e+01 0 0 0
1947 0 6 0.0000000000000000e+00 1.2494999999999999e+01 -1.4279999999999999e+01 -4.0935270961236220e+01 0 0 0
1948 0 6 0.0000000000000000e+00 1.2494999999999999e+01 -1.2494999999999999e+01 -4.2720270961236217e+01 0 0 0
1949 0 6 0.0000000000000000e+00 1.1602499999999999e+01 -1.3387499999999999e+01 -4.1827770961236219e+01 0 0 0
1950 0 6 0.0000000000000000e+00 1.1602499999999999e+01 -1.1602499999999999e+01 -4.0042770961236222e+01 0 0 0
1951 0 6 0.0000000000000000e+00 1.3387499999999999e+01 -1.3387499999999999e+01 -4.0042770961236222e+01 0 0 0
1952 0 6 0.0000000000000000e+00 1.3387499999999999e+01 -1.1602499999999999e+01 -4.1827770961236219e+01 0 0 0
1953 0 6 0.0000000000000000e+00 1.4279999999999999e+01 -1.4279999999999999e+01 -4.2720270961236217e+01 0 0 0
1954 0 6 0.0000000000000000e+00 1.4279999999999999e+01 -1.2494999999999999e+01 -4.0935270961236220e+01 0 0 0
1955 0 6 0.0000000000000000e+00 1.6064999999999998e+01 -1.4279999999999999e+01 -4.0935270961236220e+01 0 0 0
1956 0 6 0.0000000000000000e+00 1.6064999999999998e+01 -1.2494999999999999e+01 -4.2720270961236217e+01 0 0 0
1957 0 6 0.0000000000000000e+00 1.5172499999999999e+01 -1.3387499999999999e+01 -4.1827770961236219e+01 0 0 0
1958 0 6 0.0000000000000000e+00 1.5172499999999999e+01 -1.1602499999999999e+01 -4.0042770961236222e+01 0 0 0
1959 0 6 0.0000000000000000e+00 1.6957500000000000e+01 -1.3387499999999999e+01 -4.0042770961236222e+01 0 0 0
1960 0 6 0.0000000000000000e+00 1.6957500000000000e+01 -1.1602499999999999e+01 -4.1827770961236219e+01 0 0 0
2019 0 6 0.0000000000000000e+00 8.9249999999999989e+00 -1.0709999999999999e+01 -4.0935270961236220e+01 0 0 0
2023 0 6 0.0000000000000000e+00 9.8174999999999990e+00 -9.8174999999999990e+00 -4.0042770961236222e+01 0 0 0
2025 0 6 0.0000000000000000e+00 1.0709999999999999e+01 -1.0709999999999999e+01 -4.2720270961236217e+01 0 0 0
2027 0 6 0.0000000000000000e+00 1.2494999999999999e+01 -1.0709999999999999e+01 -4.0935270961236220e+01 0 0 0
2029 0 6 0.0000000000000000e+00 1.1602499999999999e+01 -9.8174999999999990e+00 -4.1827770961236219e+01 0 0 0
2031 0 6 0.0000000000000000e+00 1.3387499999999999e+01 -9.8174999999999990e+00 -4.0042770961236222e+01 0 0 0
2033 0 6 0.0000000000000000e+00 1.4279999999999999e+01 -1.0709999999999999e+01 -4.2720270961236217e+01 0 0 0
2035 0 6 0.0000000000000000e+00 1.6064999999999998e+01 -1.0709999999999999e+01 -4.0935270961236220e+01 0 0 0
2037 0 6 0.0000000000000000e+00 1.5172499999999999e+01 -9.8174999999999990e+00 -4.1827770961236219e+01 0 0 0
2039 0 6 0.0000000000000000e+00 1.6957500000000000e+01 -9.8174999999999990e+00 -4.0042770961236222e+01 0 0 0
2660 0 6 0.0000000000000000e+00 8.9249999999999989e+00 -1.6064999999999998e+01 -3.9150270961236224e+01 0 0 0
2665 0 6 0.0000000000000000e+00 1.0709999999999999e+01 -1.7849999999999998e+01 -3.9150270961236224e+01 0 0 0
2668 0 6 0.0000000000000000e+00 1.2494999999999999e+01 -1.6064999999999998e+01 -3.9150270961236224e+01 0 0 0
2673 0 6 0.0000000000000000e+00 1.4279999999999999e+01 -1.7849999999999998e+01 -3.9150270961236224e+01 0 0 0
2676 0 6 0.0000000000000000e+00 1.6064999999999998e+01 -1.6064999999999998e+01 -3.9150270961236224e+01 0 0 0
2740 0 6 0.0000000000000000e+00 8.9249999999999989e+00 -1.2494999999999999e+01 -3.9150270961236224e+01 0 0 0
2745 0 6 0.0000000000000000e+00 1.0709999999999999e+01 -1.4279999999999999e+01 -3.9150270961236224e+01 0 0 0
2748 0 6 0.0000000000000000e+00 1.2494999999999999e+01 -1.2494999999999999e+01 -3.9150270961236224e+01 0 0 0
2753 0 6 0.0000000000000000e+00 1.4279999999999999e+01 -1.4279999999999999e+01 -3.9150270961236224e+01 0 0 0
2756 0 6 0.0000000000000000e+00 1.6064999999999998e+01 -1.2494999999999999e+01 -3.9150270961236224e+01 0 0 0
2825 0 6 0.0000000000000000e+00 1.0709999999999999e+01 -1.0709999999999999e+01 -3.9150270961236224e+01 0 0 0
2833 0 6 0.0000000000000000e+00 1.4279999999999999e+01 -1.0709999999999999e+01 -3.9150270961236224e+01 0 0 0
1962 0 6 0.0000000000000000e+00 -1.7849999999999998e+01 -8.9249999999999989e+00 -4.0935270961236220e+01 0 0 0
1964 0 6 0.0000000000000000e+00 -1.6064999999999998e+01 -8.9249999999999989e+00 -4.2720270961236217e+01 0 0 0
1966 0 6 0.0000000000000000e+00 -1.6957500000000000e+01 -8.0324999999999989e+00 -4.0042770961236222e+01 0 0 0
1968 0 6 0.0000000000000000e+00 -1.5172499999999999e+01 -8.0324999999999989e+00 -4.1827770961236219e+01 0 0 0
1970 0 6 0.0000000000000000e+00 -1.4279999999999999e+01 -8.9249999999999989e+00 -4.0935270961236220e+01 0 0 0
1972 0 6 0.0000000000000000e+00 -1.2494999999999999e+01 -8.9249999999999989e+00 -4.2720270961236217e+01 0 0 0
1974 0 6 0.0000000000000000e+00 -1.3387499999999999e+01 -8.0324999999999989e+00 -4.0042770961236222e+01 0 0 0
1976 0 6 0.0000000000000000e+00 -1.1602499999999999e+01 -8.0324999999999989e+00 -4.1827770961236219e+01 0 0 0
1978 0 6 0.0000000000000000e+00 -1.0709999999999999e+01 -8.9249999999999989e+00 -4.0935270961236220e+01 0 0 0
1982 0 6 0.0000000000000000e+00 -9.8174999999999990e+00 -8.0324999999999989e+00 -4.0042770961236222e+01 0 0 0
2041 0 6 0.0000000000000000e+00 -1.7849999999999998e+01 -7.1399999999999997e+00 -4.2720270961236217e+01 0 0 0
2042 0 6 0.0000000000000000e+00 -1.7849999999999998e+01 -5.3549999999999995e+00 -4.0935270961236220e+01 0 0 0
2043 0 6 0.0000000000000000e+00 -1.6064999999999998e+01 -7.1399999999999997e+00 -4.0935270961236220e+01 0 0 0
2044 0 6 0.0000000000000000e+00 -1.6064999999999998e+01 -5.3549999999999995e+00 -4.2720270961236217e+01 0 0 0
2045 0 6 0.0000000000000000e+00 -1.6957500000000000e+01 -6.2474999999999996e+00 -4.1827770961236219e+01 0 0 0
2046 0 6 0.0000000000000000e+00 -1.6957500000000000e+01 -4.4624999999999995e+00 -4.0042770961236222e+01 0 0 0
2047 0 6 0.0000000000000000e+00 -1.5172499999999999e+01 -6.2474999999999996e+00 -4.0042770961236222e+01 0 0 0
2048 0 6 0.0000000000000000e+00 -1.5172499999999999e+01 -4.4624999999999995e+00 -4.1827770961236219e+01 0 0 0