LAMMPS data file via write_data, version 20 Nov 2019, timestep = 20000

7751 atoms
6 atom types
2754 bonds
1 bond types
1377 angles
1 angle types

-1.7849999999999998e+01 1.7849999999999998e+01 xlo xhi
-1.7849999999999998e+01 1.7849999999999998e+01 ylo yhi
-4.6409999999999997e+01 4.6409999999999997e+01 zlo zhi

Masses

1 15.9994
2 1.008
3 28.99
4 35.453
5 12.011
6 12.011

Pair Coeffs # lj/cut/tip4p/long

1 0.185199 3.1589
2 0 0
3 0.0469 2.4299
4 0.15 4.0447
5 0.07 3.55
6 0.07 3.55

Bond Coeffs # harmonic

1 0 0.9572

Angle Coeffs # harmonic

1 0 104.52

Atoms # full

1801 0 6 0.0000000000000000e+00 -1.7849999999999998e+01 -1.7849999999999998e+01 -2.5837312832820565e+01 0 0 0
1804 0 6 0.0000000000000000e+00 -1.6064999999999998e+01 -1.6064999999999998e+01 -2.5837312832820565e+01 0 0 0
1805 0 6 0.0000000000000000e+00 -1.6957500000000000e+01 -1.6957500000000000e+01 -2.4944812832820546e+01 0 0 0
1808 0 6 0.0000000000000000e+00 -1.5172499999999999e+01 -1.5172499999999999e+01 -2.4944812832820546e+01 0 0 0
1809 0 6 0.0000000000000000e+00 -1.4279999999999999e+01 -1.7849999999999998e+01 -2.5837312832820565e+01 0 0 0
1812 0 6 0.0000000000000000e+00 -1.2494999999999999e+01 -1.6064999999999998e+01 -2.5837312832820565e+01 0 0 0
1813 0 6 0.0000000000000000e+00 -1.3387499999999999e+01 -1.6957500000000000e+01 -2.4944812832820546e+01 0 0 0
1816 0 6 0.0000000000000000e+00 -1.1602499999999999e+01 -1.5172499999999999e+01 -2.4944812832820546e+01 0 0 0
1817 0 6 0.0000000000000000e+00 -1.0709999999999999e+01 -1.7849999999999998e+01 -2.5837312832820565e+01 0 0 0
1821 0 6 0.0000000000000000e+00 -9.8174999999999990e+00 -1.6957500000000000e+01 -2.4944812832820546e+01 0 0 0
1881 0 6 0.0000000000000000e+00 -1.7849999999999998e+01 -1.4279999999999999e+01 -2.5837312832820565e+01 0 0 0
1884 0 6 0.0000000000000000e+00 -1.6064999999999998e+01 -1.2494999999999999e+01 -2.5837312832820565e+01 0 0 0
1885 0 6 0.0000000000000000e+00 -1.6957500000000000e+01 -1.3387499999999999e+01 -2.4944812832820546e+01 0 0 0
1888 0 6 0.0000000000000000e+00 -1.5172499999999999e+01 -1.1602499999999999e+01 -2.4944812832820546e+01 0 0 0
1889 0 6 0.0000000000000000e+00 -1.4279999999999999e+01 -1.4279999999999999e+01 -2.5837312832820565e+01 0 0 0
1892 0 6 0.0000000000000000e+00 -1.2494999999999999e+01 -1.2494999999999999e+01 -2.5837312832820565e+01 0 0 0
1893 0 6 0.0000000000000000e+00 -1.3387499999999999e+01 -1.3387499999999999e+01 -2.4944812832820546e+01 0 0 0
1896 0 6 0.0000000000000000e+00 -1.1602499999999999e+01 -1.1602499999999999e+01 -2.4944812832820546e+01 0 0 0
1897 0 6 0.0000000000000000e+00 -1.0709999999999999e+01 -1.4279999999999999e+01 -2.5837312832820565e+01 0 0 0
1901 0 6 0.0000000000000000e+00 -9.8174999999999990e+00 -1.3387499999999999e+01 -2.4944812832820546e+01 0 0 0
1961 0 6 0.0000000000000000e+00 -1.7849999999999998e+01 -1.0709999999999999e+01 -2.5837312832820565e+01 0 0 0
1965 0 6 0.0000000000000000e+00 -1.6957500000000000e+01 -9.8174999999999990e+00 -2.4944812832820546e+01 0 0 0
1969 0 6 0.0000000000000000e+00 -1.4279999999999999e+01 -1.0709999999999999e+01 -2.5837312832820565e+01 0 0 0
1973 0 6 0.0000000000000000e+00 -1.3387499999999999e+01 -9.8174999999999990e+00 -2.4944812832820546e+01 0 0 0
1977 0 6 0.0000000000000000e+00 -1.0709999999999999e+01 -1.0709999999999999e+01 -2.5837312832820565e+01 0 0 0
1981 0 6 0.0000000000000000e+00 -9.8174999999999990e+00 -9.8174999999999990e+00 -2.4944812832820546e+01 0 0 0
1802 0 6 0.0000000000000000e+00 -1.7849999999999998e+01 -1.6064999999999998e+01 -2.4052312832820597e+01 0 0 0
1803 0 6 0.0000000000000000e+00 -1.6064999999999998e+01 -1.7849999999999998e+01 -2.4052312832820597e+01 0 0 0
1810 0 6 0.0000000000000000e+00 -1.4279999999999999e+01 -1.6064999999999998e+01 -2.4052312832820597e+01 0 0 0
1811 0 6 0.0000000000000000e+00 -1.2494999999999999e+01 -1.7849999999999998e+01 -2.4052312832820597e+01 0 0 0
1818 0 6 0.0000000000000000e+00 -1.0709999999999999e+01 -1.6064999999999998e+01 -2.4052312832820597e+01 0 0 0
1882 0 6 0.0000000000000000e+00 -1.7849999999999998e+01 -1.2494999999999999e+01 -2.4052312832820597e+01 0 0 0
1883 0 6 0.0000000000000000e+00 -1.6064999999999998e+01 -1.4279999999999999e+01 -2.4052312832820597e+01 0 0 0
1890 0 6 0.0000000000000000e+00 -1.4279999999999999e+01 -1.2494999999999999e+01 -2.4052312832820597e+01 0 0 0
1891 0 6 0.0000000000000000e+00 -1.2494999999999999e+01 -1.4279999999999999e+01 -2.4052312832820597e+01 0 0 0
1898 0 6 0.0000000000000000e+00 -1.0709999999999999e+01 -1.2494999999999999e+01 -2.4052312832820597e+01 0 0 0
1963 0 6 0.0000000000000000e+00 -1.6064999999999998e+01 -1.0709999999999999e+01 -2.4052312832820597e+01 0 0 0
1971 0 6 0.0000000000000000e+00 -1.2494999999999999e+01 -1.0709999999999999e+01 -2.4052312832820597e+01 0 0 0
1820 0 6 0.0000000000000000e+00 -8.9249999999999989e+00 -1.6064999999999998e+01 -2.5837312832820565e+01 0 0 0
1824 0 6 0.0000000000000000e+00 -8.0324999999999989e+00 -1.5172499999999999e+01 -2.4944812832820546e+01 0 0 0
1825 0 6 0.0000000000000000e+00 -7.1399999999999997e+00 -1.7849999999999998e+01 -2.5837312832820565e+01 0 0 0
1828 0 6 0.0000000000000000e+00 -5.3549999999999995e+00 -1.6064999999999998e+01 -2.5837312832820565e+01 0 0 0
1829 0 6 0.0000000000000000e+00 -6.2474999999999996e+00 -1.6957500000000000e+01 -2.4944812832820546e+01 0 0 0
1832 0 6 0.0000000000000000e+00 -4.4624999999999995e+00 -1.5172499999999999e+01 -2.4944812832820546e+01 0 0 0
1833 0 6 0.0000000000000000e+00 -3.5699999999999998e+00 -1.7849999999999998e+01 -2.5837312832820565e+01 0 0 0
1836 0 6 0.0000000000000000e+00 -1.7849999999999999e+00 -1.6064999999999998e+01 -2.5837312832820565e+01 0 0 0
1837 0 6 0.0000000000000000e+00 -2.6774999999999998e+00 -1.6957500000000000e+01 -2.4944812832820546e+01 0 0 0
1840 0 6 0.0000000000000000e+00 -8.9249999999999996e-01 -1.5172499999999999e+01 -2.4944812832820546e+01 0 0 0
1900 0 6 0.0000000000000000e+00 -8.9249999999999989e+00 -1.2494999999999999e+01 -2.5837312832820565e+01 0 0 0
1904 0 6 0.0000000000000000e+00 -8.0324999999999989e+00 -1.1602499999999999e+01 -2.4944812832820546e+01 0 0 0
1905 0 6 0.0000000000000000e+00 -7.1399999999999997e+00 -1.4279999999999999e+01 -2.5837312832820565e+01 0 0 0
1908 0 6 0.0000000000000000e+00 -5.3549999999999995e+00 -1.2494999999999999e+01 -2.5837312832820565e+01 0 0 0
1909 0 6 0.0000000000000000e+00 -6.2474999999999996e+00 -1.3387499999999999e+01 -2.4944812832820546e+01 0 0 0
1912 0 6 0.0000000000000000e+00 -4.4624999999999995e+00 -1.1602499999999999e+01 -2.4944812832820546e+01 0 0 0
1913 0 6 0.0000000000000000e+00 -3.5699999999999998e+00 -1.4279999999999999e+01 -2.5837312832820565e+01 0 0 0
1916 0 6 0.0000000000000000e+00 -1.7849999999999999e+00 -1.2494999999999999e+01 -2.5837312832820565e+01 0 0 0
1917 0 6 0.0000000000000000e+00 -2.6774999999999998e+00 -1.3387499999999999e+01 -2.4944812832820546e+01 0 0 0
1920 0 6 0.0000000000000000e+00 -8.9249999999999996e-01 -1.1602499999999999e+01 -2.4944812832820546e+01 0 0 0
1985 0 6 0.0000000000000000e+00 -7.1399999999999997e+00 -1.0709999999999999e+01 -2.5837312832820565e+01 0 0 0
1989 0 6 0.0000000000000000e+00 -6.2474999999999996e+00 -9.8174999999999990e+00 -2.4944812832820546e+01 0 0 0
1993 0 6 0.0000000000000000e+00 -3.5699999999999998e+00 -1.0709999999999999e+01 -2.5837312832820565e+01 0 0 0
1997 0 6 0.0000000000000000e+00 -2.6774999999999998e+00 -9.8174999999999990e+00 -2.4944812832820546e+01 0 0 0
1819 0 6 0.0000000000000000e+00 -8.9249999999999989e+00 -1.7849999999999998e+01 -2.4052312832820597e+01 0 0 0
1826 0 6 0.0000000000000000e+00 -7.1399999999999997e+00 -1.6064999999999998e+01 -2.4052312832820597e+01 0 0 0
1827 0 6 0.0000000000000000e+00 -5.3549999999999995e+00 -1.7849999999999998e+01 -2.4052312832820597e+01 0 0 0
1834 0 6 0.0000000000000000e+00 -3.5699999999999998e+00 -1.6064999999999998e+01 -2.4052312832820597e+01 0 0 0
1835 0 6 0.0000000000000000e+00 -1.7849999999999999e+00 -1.7849999999999998e+01 -2.4052312832820597e+01 0 0 0
1899 0 6 0.0000000000000000e+00 -8.9249999999999989e+00 -1.4279999999999999e+01 -2.4052312832820597e+01 0 0 0
1906 0 6 0.0000000000000000e+00 -7.1399999999999997e+00 -1.2494999999999999e+01 -2.4052312832820597e+01 0 0 0
1907 0 6 0.0000000000000000e+00 -5.3549999999999995e+00 -1.4279999999999999e+01 -2.4052312832820597e+01 0 0 0
1914 0 6 0.0000000000000000e+00 -3.5699999999999998e+00 -1.2494999999999999e+01 -2.4052312832820597e+01 0 0 0
1915 0 6 0.0000000000000000e+00 -1.7849999999999999e+00 -1.4279999999999999e+01 -2.4052312832820597e+01 0 0 0
1979 0 6 0.0000000000000000e+00 -8.9249999999999989e+00 -1.0709999999999999e+01 -2.4052312832820597e+01 0 0 0
1987 0 6 0.0000000000000000e+00 -5.3549999999999995e+00 -1.0709999999999999e+01 -2.4052312832820597e+01 0 0 0
1995 0 6 0.0000000000000000e+00 -1.7849999999999999e+00 -1.0709999999999999e+01 -2.4052312832820597e+01 0 0 0
1964 0 6 0.0000000000000000e+00 -1.6064999999999998e+01 -8.9249999999999989e+00 -2.5837312832820565e+01 0 0 0
1968 0 6 0.0000000000000000e+00 -1.5172499999999999e+01 -8.0324999999999989e+00 -2.4944812832820546e+01 0 0 0
1972 0 6 0.0000000000000000e+00 -1.2494999999999999e+01 -8.9249999999999989e+00 -2.5837312832820565e+01 0 0 0
1976 0 6 0.0000000000000000e+00 -1.1602499999999999e+01 -8.0324999999999989e+00 -2.4944812832820546e+01 0 0 0
2041 0 6 0.0000000000000000e+00 -1.7849999999999998e+01 -7.1399999999999997e+00 -2.5837312832820565e+01 0 0 0
2044 0 6 0.0000000000000000e+00 -1.6064999999999998e+01 -5.3549999999999995e+00 -2.5837312832820565e+01 0 0 0
2045 0 6 0.0000000000000000e+00 -1.6957500000000000e+01 -6.2474999999999996e+00 -2.4944812832820546e+01 0 0 0
2048 0 6 0.0000000000000000e+00 -1.5172499999999999e+01 -4.4624999999999995e+00 -2.4944812832820546e+01 0 0 0
2049 0 6 0.0000000000000000e+00 -1.4279999999999999e+01 -7.1399999999999997e+00 -2.5837312832820565e+01 0 0 0
2052 0 6 0.0000000000000000e+00 -1.2494999999999999e+01 -5.3549999999999995e+00 -2.5837312832820565e+01 0 0 0
2053 0 6 0.0000000000000000e+00 -1.3387499999999999e+01 -6.2474999999999996e+00 -2.4944812832820546e+01 0 0 0
2056 0 6 0.0000000000000000e+00 -1.1602499999999999e+01 -4.4624999999999995e+00 -2.4944812832820546e+01 0 0 0
2057 0 6 0.0000000000000000e+00 -1.0709999999999999e+01 -7.1399999999999997e+00 -2.5837312832820565e+01 0 0 0
2061 0 6 0.0000000000000000e+00 -9.8174999999999990e+00 -6.2474999999999996e+00 -2.4944812832820546e+01 0 0 0
2121 0 6 0.0000000000000000e+00 -1.7849999999999998e+01 -3.5699999999999998e+00 -2.5837312832820565e+01 0 0 0
2124 0 6 0.0000000000000000e+00 -1.6064999999999998e+01 -1.7849999999999999e+00 -2.5837312832820565e+01 0 0 0
2125 0 6 0.0000000000000000e+00 -1.6957500000000000e+01 -2.6774999999999998e+00 -2.4944812832820546e+01 0 0 0
2128 0 6 0.0000000000000000e+00 -1.5172499999999999e+01 -8.9249999999999996e-01 -2.4944812832820546e+01 0 0 0
2129 0 6 0.0000000000000000e+00 -1.4279999999999999e+01 -3.5699999999999998e+00 -2.5837312832820565e+01 0 0 0
2132 0 6 0.0000000000000000e+00 -1.2494999999999999e+01 -1.7849999999999999e+00 -2.5837312832820565e+01 0 0 0
2133 0 6 0.0000000000000000e+00 -1.3387499999999999e+01 -2.6774999999999998e+00 -2.4944812832820546e+01 0 0 0
2136 0 6 0.0000000000000000e+00 -1.1602499999999999e+01 -8.9249999999999996e-01 -2.4944812832820546e+01 0 0 0
2137 0 6 0.0000000000000000e+00 -1.0709999999999999e+01 -3.5699999999999998e+00 -2.5837312832820565e+01 0 0 0
2141 0 6 0.0000000000000000e+00 -9.8174999999999990e+00 -2.6774999999999998e+00 -2.4944812832820546e+01 0 0 0
1962 0 6 0.0000000000000000e+00 -1.7849999999999998e+01 -8.9249999999999989e+00 -2.4052312832820597e+01 0 0 0
1970 0 6 0.0000000000000000e+00 -1.4279999999999999e+01 -8.9249999999999989e+00 -2.4052312832820597e+01 0 0 0
1978 0 6 0.0000000000000000e+00 -1.0709999999999999e+01 -8.9249999999999989e+00 -2.4052312832820597e+01 0 0 0
2042 0 6 0.0000000000000000e+00 -1.7849999999999998e+01 -5.3549999999999995e+00 -2.4052312832820597e+01 0 0 0
2043 0 6 0.0000000000000000e+00 -1.6064999999999998e+01 -7.1399999999999997e+00 -2.4052312832820597e+01 0 0 0
2050 0 6 0.0000000000000000e+00 -1.4279999999999999e+01 -5.3549999999999995e+00 -2.4052312832820597e+01 0 0 0
2051 0 6 0.0000000000000000e+00 -1.2494999999999999e+01 -7.1399999999999997e+00 -2.4052312832820597e+01 0 0 0
2058 0 6 0.0000000000000000e+00 -1.0709999999999999e+01 -5.3549999999999995e+00 -2.4052312832820597e+01 0 0 0
2122 0 6 0.0000000000000000e+00 -1.7849999999999998e+01 -1.7849999999999999e+00 -2.4052312832820597e+01 0 0 0
2123 0 6 0.0000000000000000e+00 -1.6064999999999998e+01 -3.5699999999999998e+00 -2.4052312832820597e+01 0 0 0
2130 0 6 0.0000000000000000e+00 -1.4279999999999999e+01 -1.7849999999999999e+00 -2.4052312832820597e+01 0 0 0
2131 0 6 0.0000000000000000e+00 -1.2494999999999999e+01 -3.5699999999999998e+00 -2.4052312832820597e+01 0 0 0
2138 0 6 0.0000000000000000e+00 -1.0709999999999999e+01 -1.7849999999999999e+00 -2.4052312832820597e+01 0 0 0
1980 0 6 0.0000000000000000e+00 -8.9249999999999989e+00 -8.9249999999999989e+00 -2.5837312832820565e+01 0 0 0
1984 0 6 0.0000000000000000e+00 -8.0324999999999989e+00 -8.0324999999999989e+00 -2.4944812832820546e+01 0 0 0
1988 0 6 0.0000000000000000e+00 -5.3549999999999995e+00 -8.9249999999999989e+00 -2.5837312832820565e+01 0 0 0
1992 0 6 0.0000000000000000e+00 -4.4624999999999995e+00 -8.0324999999999989e+00 -2.4944812832820546e+01 0 0 0
1996 0 6 0.0000000000000000e+00 -1.7849999999999999e+00 -8.9249999999999989e+00 -2.5837312832820565e+01 0 0 0
2000 0 6 0.0000000000000000e+00 -8.9249999999999996e-01 -8.0324999999999989e+00 -2.4944812832820546e+01 0 0 0
2060 0 6 0.0000000000000000e+00 -8.9249999999999989e+00 -5.3549999999999995e+00 -2.5837312832820565e+01 0 0 0
2064 0 6 0.0000000000000000e+00 -8.0324999999999989e+00 -4.4624999999999995e+00 -2.4944812832820546e+01 0 0 0
2065 0 6 0.0000000000000000e+00 -7.1399999999999997e+00 -7.1399999999999997e+00 -2.5837312832820565e+01 0 0 0
2068 0 6 0.0000000000000000e+00 -5.3549999999999995e+00 -5.3549999999999995e+00 -2.5837312832820565e+01 0 0 0
2069 0 6 0.0000000000000000e+00 -6.2474999999999996e+00 -6.2474999999999996e+00 -2.4944812832820546e+01 0 0 0
2072 0 6 0.0000000000000000e+00 -4.4624999999999995e+00 -4.4624999999999995e+00 -2.4944812832820546e+01 0 0 0
2073 0 6 0.0000000000000000e+00 -3.5699999999999998e+00 -7.1399999999999997e+00 -2.5837312832820565e+01 0 0 0
2076 0 6 0.0000000000000000e+00 -1.7849999999999999e+00 -5.3549999999999995e+00 -2.5837312832820565e+01 0 0 0
2077 0 6 0.0000000000000000e+00 -2.6774999999999998e+00 -6.2474999999999996e+00 -2.4944812832820546e+01 0 0 0
2080 0 6 0.0000000000000000e+00 -8.9249999999999996e-01 -4.4624999999999995e+00 -2.4944812832820546e+01 0 0 0
2140 0 6 0.0000000000000000e+00 -8.9249999999999989e+00 -1.7849999999999999e+00 -2.5837312832820565e+01 0 0 0
2144 0 6 0.0000000000000000e+00 -8.0324999999999989e+00 -8.9249999999999996e-01 -2.4944812832820546e+01 0 0 0
2145 0 6 0.0000000000000000e+00 -7.1399999999999997e+00 -3.5699999999999998e+00 -2.5837312832820565e+01 0 0 0
2148 0 6 0.0000000000000000e+00 -5.3549999999999995e+00 -1.7849999999999999e+00 -2.5837312832820565e+01 0 0 0
2149 0 6 0.0000000000000000e+00 -6.2474999999999996e+00 -2.6774999999999998e+00 -2.4944812832820546e+01 0 0 0
2152 0 6 0.0000000000000000e+00 -4.4624999999999995e+00 -8.9249999999999996e-01 -2.4944812832820546e+01 0 0 0
2153 0 6 0.0000000000000000e+00 -3.5699999999999998e+00 -3.5699999999999998e+00 -2.5837312832820565e+01 0 0 0
2156 0 6 0.0000000000000000e+00 -1.7849999999999999e+00 -1.7849999999999999e+00 -2.5837312832820565e+01 0 0 0
2157 0 6 0.0000000000000000e+00 -2.6774999999999998e+00 -2.6774999999999998e+00 -2.4944812832820546e+01 0 0 0
2160 0 6 0.0000000000000000e+00 -8.9249999999999996e-01 -8.9249999999999996e-01 -2.4944812832820546e+01 0 0 0
1986 0 6 0.0000000000000000e+00 -7.1399999999999997e+00 -8.9249999999999989e+00 -2.4052312832820597e+01 0 0 0
1994 0 6 0.0000000000000000e+00 -3.5699999999999998e+00 -8.9249999999999989e+00 -2.4052312832820597e+01 0 0 0
2059 0 6 0.0000000000000000e+00 -8.9249999999999989e+00 -7.1399999999999997e+00 -2.4052312832820597e+01 0 0 0
2066 0 6 0.0000000000000000e+00 -7.1399999999999997e+00 -5.3549999999999995e+00 -2.4052312832820597e+01 0 0 0
2067 0 6 0.0000000000000000e+00 -5.3549999999999995e+00 -7.1399999999999997e+00 -2.4052312832820597e+01 0 0 0
2074 0 6 0.0000000000000000e+00 -3.5699999999999998e+00 -5.3549999999999995e+00 -2.4052312832820597e+01 0 0 0
2075 0 6 0.0000000000000000e+00 -1.7849999999999999e+00 -7.1399999999999997e+00 -2.4052312832820597e+01 0 0 0
2139 0 6 0.0000000000000000e+00 -8.9249999999999989e+00 -3.5699999999999998e+00 -2.4052312832820597e+01 0 0 0
2146 0 6 0.0000000000000000e+00 -7.1399999999999997e+00 -1.7849999999999999e+00 -2.4052312832820597e+01 0 0 0
2147 0 6 0.0000000000000000e+00 -5.3549999999999995e+00 -3.5699999999999998e+00 -2.4052312832820597e+01 0 0 0
2154 0 6 0.0000000000000000e+00 -3.5699999999999998e+00 -1.7849999999999999e+00 -2.4052312832820597e+01 0 0 0
2155 0 6 0.0000000000000000e+00 -1.7849999999999999e+00 -3.5699999999999998e+00 -2.4052312832820597e+01 0 0 0
1806 0 6 0.0000000000000000e+00 -1.6957500000000000e+01 -1.5172499999999999e+01 -2.3159812832820776e+01 0 0 0
1807 0 6 0.0000000000000000e+00 -1.5172499999999999e+01 -1.6957500000000000e+01 -2.3159812832820776e+01 0 0 0
1814 0 6 0.0000000000000000e+00 -1.3387499999999999e+01 -1.5172499999999999e+01 -2.3159812832820776e+01 0 0 0
1815 0 6 0.0000000000000000e+00 -1.1602499999999999e+01 -1.6957500000000000e+01 -2.3159812832820776e+01 0 0 0
1822 0 6 0.0000000000000000e+00 -9.8174999999999990e+00 -1.5172499999999999e+01 -2.3159812832820776e+01 0 0 0
1886 0 6 0.0000000000000000e+00 -1.6957500000000000e+01 -1.1602499999999999e+01 -2.3159812832820776e+01 0 0 0
1887 0 6 0.0000000000000000e+00 -1.5172499999999999e+01 -1.3387499999999999e+01 -2.3159812832820776e+01 0 0 0
1894 0 6 0.0000000000000000e+00 -1.3387499999999999e+01 -1.1602499999999999e+01 -2.3159812832820776e+01 0 0 0
1895 0 6 0.0000000000000000e+00 -1.1602499999999999e+01 -1.3387499999999999e+01 -2.3159812832820776e+01 0 0 0
1902 0 6 0.0000000000000000e+00 -9.8174999999999990e+00 -1.1602499999999999e+01 -2.3159812832820776e+01 0 0 0
1967 0 6 0.0000000000000000e+00 -1.5172499999999999e+01 -9.8174999999999990e+00 -2.3159812832820776e+01 0 0 0
1975 0 6 0.0000000000000000e+00 -1.1602499999999999e+01 -9.8174999999999990e+00 -2.3159812832820776e+01 0 0 0
2601 0 6 0.0000000000000000e+00 -1.7849999999999998e+01 -1.7849999999999998e+01 -2.2267312832820807e+01 0 0 0
2604 0 6 0.0000000000000000e+00 -1.6064999999999998e+01 -1.6064999999999998e+01 -2.2267312832820807e+01 0 0 0
2609 0 6 0.0000000000000000e+00 -1.4279999999999999e+01 -1.7849999999999998e+01 -2.2267312832820807e+01 0 0 0
2612 0 6 0.0000000000000000e+00 -1.2494999999999999e+01 -1.6064999999999998e+01 -2.2267312832820807e+01 0 0 0
2617 0 6 0.0000000000000000e+00 -1.0709999999999999e+01 -1.7849999999999998e+01 -2.2267312832820807e+01 0 0 0
2681 0 6 0.0000000000000000e+00 -1.7849999999999998e+01 -1.4279999999999999e+01 -2.2267312832820807e+01 0 0 0
2684 0 6 0.0000000000000000e+00 -1.6064999999999998e+01 -1.2494999999999999e+01 -2.2267312832820807e+01 0 0 0
2689 0 6 0.0000000000000000e+00 -1.4279999999999999e+01 -1.4279999999999999e+01 -2.2267312832820807e+01 0 0 0
2692 0 6 0.0000000000000000e+00 -1.2494999999999999e+01 -1.2494999999999999e+01 -2.2267312832820807e+01 0 0 0
2697 0 6 0.0000000000000000e+00 -1.0709999999999999e+01 -1.4279999999999999e+01 -2.2267312832820807e+01 0 0 0
2761 0 6 0.0000000000000000e+00 -1.7849999999999998e+01 -1.0709999999999999e+01 -2.2267312832820807e+01 0 0 0
2769 0 6 0.0000000000000000e+00 -1.4279999999999999e+01 -1.0709999999999999e+01 -2.2267312832820807e+01 0 0 0
2777 0 6 0.0000000000000000e+00 -1.0709999999999999e+01 -1.0709999999999999e+01 -2.2267312832820807e+01 0 0 0
2605 0 6 0.0000000000000000e+00 -1.6957500000000000e+01 -1.6957500000000000e+01 -2.1374812832820687e+01 0 0 0
2608 0 6 0.0000000000000000e+00 -1.5172499999999999e+01 -1.5172499999999999e+01 -2.1374812832820687e+01 0 0 0
2613 0 6 0.0000000000000000e+00 -1.3387499999999999e+01 -1.6957500000000000e+01 -2.1374812832820687e+01 0 0 0
2616 0 6 0.0000000000000000e+00 -1.1602499999999999e+01 -1.5172499999999999e+01 -2.1374812832820687e+01 0 0 0
2621 0 6 0.0000000000000000e+00 -9.8174999999999990e+00 -1.6957500000000000e+01 -2.1374812832820687e+01 0 0 0
2685 0 6 0.0000000000000000e+00 -1.6957500000000000e+01 -1.3387499999999999e+01 -2.1374812832820687e+01 0 0 0
2688 0 6 0.0000000000000000e+00 -1.5172499999999999e+01 -1.1602499999999999e+01 -2.1374812832820687e+01 0 0 0
2693 0 6 0.0000000000000000e+00 -1.3387499999999999e+01 -1.3387499999999999e+01 -2.1374812832820687e+01 0 0 0
2696 0 6 0.0000000000000000e+00 -1.1602499999999999e+01 -1.1602499999999999e+01 -2.1374812832820687e+01 0 0 0
2701 0 6 0.0000000000000000e+00 -9.8174999999999990e+00 -1.3387499999999999e+01 -2.1374812832820687e+01 0 0 0
2765 0 6 0.0000000000000000e+00 -1.6957500000000000e+01 -9.8174999999999990e+00 -2.1374812832820687e+01 0 0 0
2773 0 6 0.0000000000000000e+00 -1.3387499999999999e+01 -9.8174999999999990e+00 -2.1374812832820687e+01 0 0 0
2781 0 6 0.0000000000000000e+00 -9.8174999999999990e+00 -9.8174999999999990e+00 -2.1374812832820687e+01 0 0 0
2602 0 6 0.0000000000000000e+00 -1.7849999999999998e+01 -1.6064999999999998e+01 -2.0482312832820611e+01 0 0 0
2603 0 6 0.0000000000000000e+00 -1.6064999999999998e+01 -1.7849999999999998e+01 -2.0482312832820611e+01 0 0 0
2610 0 6 0.0000000000000000e+00 -1.4279999999999999e+01 -1.6064999999999998e+01 -2.0482312832820611e+01 0 0 0
2611 0 6 0.0000000000000000e+00 -1.2494999999999999e+01 -1.7849999999999998e+01 -2.0482312832820611e+01 0 0 0
2618 0 6 0.0000000000000000e+00 -1.0709999999999999e+01 -1.6064999999999998e+01 -2.0482312832820611e+01 0 0 0
2682 0 6 0.0000000000000000e+00 -1.7849999999999998e+01 -1.2494999999999999e+01 -2.0482312832820611e+01 0 0 0
2683 0 6 0.0000000000000000e+00 -1.6064999999999998e+01 -1.4279999999999999e+01 -2.0482312832820611e+01 0 0 0
2690 0 6 0.0000000000000000e+00 -1.4279999999999999e+01 -1.2494999999999999e+01 -2.0482312832820611e+01 0 0 0
2691 0 6 0.0000000000000000e+00 -1.2494999999999999e+01 -1.4279999999999999e+01 -2.0482312832820611e+01 0 0 0
2698 0 6 0.0000000000000000e+00 -1.0709999999999999e+01 -1.2494999999999999e+01 -2.0482312832820611e+01 0 0 0
2763 0 6 0.0000000000000000e+00 -1.6064999999999998e+01 -1.0709999999999999e+01 -2.0482312832820611e+01 0 0 0
2771 0 6 0.0000000000000000e+00 -1.2494999999999999e+01 -1.0709999999999999e+01 -2.0482312832820611e+01 0 0 0
2606 0 6 0.0000000000000000e+00 -1.6957500000000000e+01 -1.5172499999999999e+01 -1.9589812832820542e+01 0 0 0
2607 0 6 0.0000000000000000e+00 -1.5172499999999999e+01 -1.6957500000000000e+01 -1.9589812832820542e+01 0 0 0
2614 0 6 0.0000000000000000e+00 -1.3387499999999999e+01 -1.5172499999999999e+01 -1.9589812832820542e+01 0 0 0
2615 0 6 0.0000000000000000e+00 -1.1602499999999999e+01 -1.6957500000000000e+01 -1.9589812832820542e+01 0 0 0
2622 0 6 0.0000000000000000e+00 -9.8174999999999990e+00 -1.5172499999999999e+01 -1.9589812832820542e+01 0 0 0
2686 0 6 0.0000000000000000e+00 -1.6957500000000000e+01 -1.1602499999999999e+01 -1.9589812832820542e+01 0 0 0
2687 0 6 0.0000000000000000e+00 -1.5172499999999999e+01 -1.3387499999999999e+01 -1.9589812832820542e+01 0 0 0
2694 0 6 0.0000000000000000e+00 -1.3387499999999999e+01 -1.1602499999999999e+01 -1.9589812832820542e+01 0 0 0
2695 0 6 0.0000000000000000e+00 -1.1602499999999999e+01 -1.3387499999999999e+01 -1.9589812832820542e+01 0 0 0
2702 0 6 0.0000000000000000e+00 -9.8174999999999990e+00 -1.1602499999999999e+01 -1.9589812832820542e+01 0 0 0
2767 0 6 0.0000000000000000e+00 -1.5172499999999999e+01 -9.8174999999999990e+00 -1.9589812832820542e+01 0 0 0
2775 0 6 0.0000000000000000e+00 -1.1602499999999999e+01 -9.8174999999999990e+00 -1.9589812832820542e+01 0 0 0
3401 0 6 0.0000000000000000e+00 -1.7849999999999998e+01 -1.7849999999999998e+01 -1.8697312832820508e+01 0 0 0
3402 0 6 0.0000000000000000e+00 -1.6064999999999998e+01 -1.6064999999999998e+01 -1.8697312832820508e+01 0 0 0
3403 0 6 0.0000000000000000e+00 -1.4279999999999999e+01 -1.7849999999999998e+01 -1.8697312832820508e+01 0 0 0
3404 0 6 0.0000000000000000e+00 -1.2494999999999999e+01 -1.6064999999999998e+01 -1.8697312832820508e+01 0 0 0
3405 0 6 0.0000000000000000e+00 -1.0709999999999999e+01 -1.7849999999999998e+01 -1.8697312832820508e+01 0 0 0
3421 0 6 0.0000000000000000e+00 -1.7849999999999998e+01 -1.4279999999999999e+01 -1.8697312832820508e+01 0 0 0
3422 0 6 0.0000000000000000e+00 -1.6064999999999998e+01 -1.2494999999999999e+01 -1.8697312832820508e+01 0 0 0
3423 0 6 0.0000000000000000e+00 -1.4279999999999999e+01 -1.4279999999999999e+01 -1.8697312832820508e+01 0 0 0
3424 0 6 0.0000000000000000e+00 -1.2494999999999999e+01 -1.2494999999999999e+01 -1.8697312832820508e+01 0 0 0
3425 0 6 0.0000000000000000e+00 -1.0709999999999999e+01 -1.4279999999999999e+01 -1.8697312832820508e+01 0 0 0
3441 0 6 0.0000000000000000e+00 -1.7849999999999998e+01 -1.0709999999999999e+01 -1.8697312832820508e+01 0 0 0
3443 0 6 0.0000000000000000e+00 -1.4279999999999999e+01 -1.0709999999999999e+01 -1.8697312832820508e+01 0 0 0
3445 0 6 0.0000000000000000e+00 -1.0709999999999999e+01 -1.0709999999999999e+01 -1.8697312832820508e+01 0 0 0
4060 154 1 -1.1128000000000000e+00 -1.5583951732375839e+01 -1.4233146038699191e+01 -1.5945363950017782e+01 0 1 0
4061 154 2 5.5640000000000001e-01 -1.5547659814892375e+01 -1.4213627193381559e+01 -1.6901676587688382e+01 0 1 0
3822 74 2 5.5640000000000001e-01 -1.1929099376515653e+01 -1.2930163442313660e+01 -1.5021575689258592e+01 0 1 0
3820 74 1 -1.1128000000000000e+00 -1.2557655078921927e+01 -1.3620899956347641e+01 -1.4811734200691145e+01 0 1 0
4062 154 2 5.5640000000000001e-01 -1.5848707601698663e+01 -1.3347418182832145e+01 -1.5697123642535749e+01 0 1 0
4034 145 2 5.5640000000000001e-01 -1.6019856196799683e+01 -1.6095878054764889e+01 -1.5886892801380736e+01 0 1 0
3821 74 2 5.5640000000000001e-01 -1.3403758863900332e+01 -1.3266636991727285e+01 -1.5085299725901523e+01 0 1 0
3848 83 2 5.5640000000000001e-01 -8.9027860437973203e+00 -1.5196184230058954e+01 -1.4351347306082458e+01 0 0 0
4035 145 2 5.5640000000000001e-01 -1.5267231475140164e+01 -1.7374343912735078e+01 -1.5585267173768383e+01 0 1 0
7382 1261 2 5.5640000000000001e-01 -1.6049404723889925e+01 -3.5269809541901337e-01 1.0927415437336698e+01 0 0 0
5562 654 2 5.5640000000000001e-01 -2.3100296406459472e-01 -1.7811217343481108e+01 -2.4749246422557083e+00 0 0 0
3823 75 1 -1.1128000000000000e+00 -8.6641233461984228e+00 -1.3521551307759669e+01 -1.5153846211414251e+01 0 1 0
1823 0 6 0.0000000000000000e+00 -8.0324999999999989e+00 -1.6957500000000000e+01 -2.3159812832820776e+01 0 0 0
1830 0 6 0.0000000000000000e+00 -6.2474999999999996e+00 -1.5172499999999999e+01 -2.3159812832820776e+01 0 0 0
1831 0 6 0.0000000000000000e+00 -4.4624999999999995e+00 -1.6957500000000000e+01 -2.3159812832820776e+01 0 0 0
1838 0 6 0.0000000000000000e+00 -2.6774999999999998e+00 -1.5172499999999999e+01 -2.3159812832820776e+01 0 0 0
1839 0 6 0.0000000000000000e+00 -8.9249999999999996e-01 -1.6957500000000000e+01 -2.3159812832820776e+01 0 0 0
1903 0 6 0.0000000000000000e+00 -8.0324999999999989e+00 -1.3387499999999999e+01 -2.3159812832820776e+01 0 0 0
1910 0 6 0.0000000000000000e+00 -6.2474999999999996e+00 -1.1602499999999999e+01 -2.3159812832820776e+01 0 0 0
1911 0 6 0.0000000000000000e+00 -4.4624999999999995e+00 -1.3387499999999999e+01 -2.3159812832820776e+01 0 0 0
1918 0 6 0.0000000000000000e+00 -2.6774999999999998e+00 -1.1602499999999999e+01 -2.3159812832820776e+01 0 0 0
1919 0 6 0.0000000000000000e+00 -8.9249999999999996e-01 -1.3387499999999999e+01 -2.3159812832820776e+01 0 0 0
1983 0 6 0.0000000000000000e+00 -8.0324999999999989e+00 -9.8174999999999990e+00 -2.3159812832820776e+01 0 0 0
1991 0 6 0.0000000000000000e+00 -4.4624999999999995e+00 -9.8174999999999990e+00 -2.3159812832820776e+01 0 0 0
1999 0 6 0.0000000000000000e+00 -8.9249999999999996e-01 -9.8174999999999990e+00 -2.3159812832820776e+01 0 0 0
2620 0 6 0.0000000000000000e+00 -8.9249999999999989e+00 -1.6064999999999998e+01 -2.2267312832820807e+01 0 0 0
2625 0 6 0.0000000000000000e+00 -7.1399999999999997e+00 -1.7849999999999998e+01 -2.2267312832820807e+01 0 0 0
2628 0 6 0.0000000000000000e+00 -5.3549999999999995e+00 -1.6064999999999998e+01 -2.2267312832820807e+01 0 0 0
2633 0 6 0.0000000000000000e+00 -3.5699999999999998e+00 -1.7849999999999998e+01 -2.2267312832820807e+01 0 0 0
2636 0 6 0.0000000000000000e+00 -1.7849999999999999e+00 -1.6064999999999998e+01 -2.2267312832820807e+01 0 0 0
2700 0 6 0.0000000000000000e+00 -8.9249999999999989e+00 -1.2494999999999999e+01 -2.2267312832820807e+01 0 0 0
2705 0 6 0.0000000000000000e+00 -7.1399999999999997e+00 -1.4279999999999999e+01 -2.2267312832820807e+01 0 0 0
2708 0 6 0.0000000000000000e+00 -5.3549999999999995e+00 -1.2494999999999999e+01 -2.2267312832820807e+01 0 0 0
2713 0 6 0.0000000000000000e+00 -3.5699999999999998e+00 -1.4279999999999999e+01 -2.2267312832820807e+01 0 0 0
2716 0 6 0.0000000000000000e+00 -1.7849999999999999e+00 -1.2494999999999999e+01 -2.2267312832820807e+01 0 0 0
2785 0 6 0.0000000000000000e+00 -7.1399999999999997e+00 -1.0709999999999999e+01 -2.2267312832820807e+01 0 0 0
2793 0 6 0.0000000000000000e+00 -3.5699999999999998e+00 -1.0709999999999999e+01 -2.2267312832820807e+01 0 0 0
2624 0 6 0.0000000000000000e+00 -8.0324999999999989e+00 -1.5172499999999999e+01 -2.1374812832820687e+01 0 0 0
2629 0 6 0.0000000000000000e+00 -6.2474999999999996e+00 -1.6957500000000000e+01 -2.1374812832820687e+01 0 0 0
2632 0 6 0.0000000000000000e+00 -4.4624999999999995e+00 -1.5172499999999999e+01 -2.1374812832820687e+01 0 0 0
2637 0 6 0.0000000000000000e+00 -2.6774999999999998e+00 -1.6957500000000000e+01 -2.1374812832820687e+01 0 0 0
2640 0 6 0.0000000000000000e+00 -8.9249999999999996e-01 -1.5172499999999999e+01 -2.1374812832820687e+01 0 0 0