LAMMPS data file via write_data, version 2 Aug 2023, timestep = 100000, units = real

1491 atoms
5 atom types
686 bonds
1 bond types
343 angles
1 angle types

-12.120000000000001 12.120000000000001 xlo xhi
-12.120000000000001 12.120000000000001 ylo yhi
-28.28 28.28 zlo zhi

Masses

1 15.9994
2 1.008
3 28.99
4 35.453
5 26.9815

Pair Coeffs # lj/cut/tip4p/long

1 0.185199 3.1589
2 0 0
3 0.0469 2.4299
4 0.15 4.0447
5 11.697 2.574

Bond Coeffs # harmonic

1 0 0.9572

Angle Coeffs # harmonic

1 0 104.52

Atoms # full

478 16 1 -1.1128 -8.81780365036316 -10.070941333019057 -6.5586000653107375 0 0 0
86 0 5 0 -10.890656696214867 -10.02240685702146 -8.968175229217254 0 0 0
484 18 1 -1.1128 -6.710023459033392 -7.897757413430412 -6.616384819987585 0 0 0
451 7 1 -1.1128 -11.000154753778153 -8.21341025059094 -6.461484097863455 1 0 0
544 38 1 -1.1128 -8.795360204410557 -6.157029588609675 -6.483936733769819 0 0 0
545 38 2 0.5564 -8.089071002593442 -6.78352705295115 -6.641805399389986 0 0 0
452 7 2 0.5564 -10.200043746064111 -8.732286315481316 -6.544305007567581 1 0 0
453 7 2 0.5564 -11.707092134007322 -8.83085000526981 -6.649122587561107 1 0 0
480 16 2 0.5564 -8.442777108095111 -9.564101760542254 -7.278820893295868 0 0 0
485 18 2 0.5564 -6.273995255610719 -8.74079932385147 -6.492248485416106 0 0 0
479 16 2 0.5564 -8.10574586520077 -10.642391349156224 -6.271052615922157 0 0 0
546 38 2 0.5564 -9.224732403076136 -6.474598711262108 -5.6895817183030175 0 0 0
486 18 2 0.5564 -6.0717419472460525 -7.3650324929352005 -7.090794221004788 0 0 0
1153 241 1 -1.1128 -6.920029934111059 -4.237827183280539 -6.580668705443207 0 0 0
1045 205 1 -1.1128 -10.859836526139752 -3.921363669501747 -6.632726754648795 0 0 0
1154 241 2 0.5564 -7.601306022849204 -4.902065726672154 -6.4765058211460955 0 0 0
1155 241 2 0.5564 -6.132129628126295 -4.734683660398511 -6.8011585324862365 0 0 0
1047 205 2 0.5564 -10.033685866750792 -4.0416013369754005 -7.10101042802072 0 0 0
1046 205 2 0.5564 -11.3136871221416 -4.758726920886488 -6.727881716019906 0 0 0
291 0 5 0 -8.899363563016259 -3.9421665531732875 -9.056056804763687 0 0 0
100 0 5 0 -6.942592621537717 -5.999745889033874 -9.033116066761517 0 0 0
99 0 5 0 -8.756775069658124 -8.071095610106932 -8.969965966508592 0 0 0
88 0 5 0 -6.763507727335611 -10.040961424153718 -8.927586823707902 0 0 0
98 0 5 0 -10.79872397058346 -6.032714633001138 -8.985562147063913 0 0 0
55 0 5 0 -6.850550937956363 -8.006668531019082 -10.969033757186516 0 0 0
56 0 5 0 -8.9015343696129 -6.0771647667964315 -11.066082044397483 0 0 0
219 0 5 0 -10.890231938971358 -4.01388805157882 -11.010630658059014 0 0 0
223 0 5 0 -6.83353176006275 -3.9727099877127707 -10.99225488352696 0 0 0
32 0 5 0 -8.792396297547674 -10.034646274267127 -11.006635849782434 0 0 0
51 0 5 0 -10.803443289722262 -8.084612016683929 -11.066476764402008 0 0 0
30 0 5 0 -6.8274520809476025 -10.02224938395021 -13.112976926126185 0 0 0
222 0 5 0 -6.853454629024571 -1.936852524029036 -13.021819103522123 0 0 0
218 0 5 0 -10.862113629414235 -1.931721590606897 -13.04045133497045 0 0 0
292 0 5 0 -6.798622214141528 -1.9417092142050623 -8.969671053807945 0 0 0
221 0 5 0 -8.925905330372522 -3.9866698722420235 -13.039063614324274 0 0 0
224 0 5 0 -8.873593947146022 -1.9686748387637476 -10.951125057951266 0 0 0
290 0 5 0 -10.85648893808123 -1.929910061459201 -9.029237587352455 0 0 0
50 0 5 0 -10.972963324060412 -5.999195646672003 -13.06147723166561 0 0 0
54 0 5 0 -6.867009660669616 -5.861077205421681 -13.054137267359948 0 0 0
53 0 5 0 -8.789797993847879 -8.008325145578901 -13.07358846419279 0 0 0
1464 0 3 1.1 -5.706277089184868 -11.103972164412093 -3.701352861592209 0 0 0
26 0 5 0 -10.931802055765802 -9.999749385267634 -13.200027287213338 0 0 0
36 0 5 0 -4.79780606365257 -9.976882485878752 -11.01409198556496 0 0 0
481 17 1 -1.1128 -5.111164198523571 -10.074957587815355 -6.599736916996205 0 0 0
547 39 1 -1.1128 -4.541496180918303 -5.911333208641793 -6.596988286507879 0 0 0
101 0 5 0 -4.766117187520548 -7.989809038114918 -8.900748185402103 0 0 0
60 0 5 0 -4.812085849732562 -6.061500453268524 -11.024245615672685 0 0 0
225 0 5 0 -4.792750040316746 -3.960829080595692 -13.009362347075086 0 0 0
57 0 5 0 -4.8270529992743745 -8.065684699970031 -13.186983513156225 0 0 0
1048 206 1 -1.1128 -8.60508062552062 -1.9590933011828409 -6.577097777859781 0 0 0
964 178 1 -1.1128 -4.685379150845538 -1.753658874264623 -6.324132332218592 0 0 0
228 0 5 0 -4.833189385999111 -1.8159524537445375 -10.941891796289234 0 0 0
293 0 5 0 -4.8636204884484 -3.9984989894799012 -8.932236162843793 0 0 0
1050 206 2 0.5564 -8.082101613879187 -1.1671463775025428 -6.7018749111566995 0 0 0
1049 206 2 0.5564 -7.976148720461338 -2.676577576199865 -6.6540549149876025 0 0 0
966 178 2 0.5564 -5.620837878818637 -1.593691902927354 -6.448695893690113 0 0 0
1241 270 2 0.5564 -7.043256380646554 -2.8857881688273537 -3.619942879106115 1 0 0
1242 270 2 0.5564 -6.517941292559964 -3.693657714746274 -4.787542197893334 1 0 0
1240 270 1 -1.1128 -6.620841942147155 -3.7170665514191605 -3.836174559730535 1 0 0
724 98 1 -1.1128 -8.968701340280612 -11.066763098761315 -1.3345731689537976 2 0 0
726 98 2 0.5564 -9.203531224751252 -11.11360283543981 -2.261331923934714 2 0 0
1244 271 2 0.5564 -7.549148422900776 -8.764605737205603 -3.8293346263936607 1 0 0
1243 271 1 -1.1128 -6.6253741880642485 -8.969970914795164 -3.6856160881214333 1 0 0
947 172 2 0.5564 -4.192426320076778 -6.566503872608224 -3.7809233148801433 1 0 0
725 98 2 0.5564 -9.22716283125734 -10.185199859637349 -1.0657547977295325 2 0 0
1468 0 3 1.1 -5.98997082624298 -5.082871249916101 -2.0739625875849805 2 0 0
946 172 1 -1.1128 -5.115590553745242 -6.415247451741366 -3.983815720861917 1 0 0
948 172 2 0.5564 -5.145501554417779 -6.36046295583802 -4.938978329171361 1 0 0
1064 211 2 0.5564 -3.326800331464415 -2.961079560555527 -3.4185216002148584 1 0 0
1245 271 2 0.5564 -6.160962379071609 -8.16854885948581 -3.9270661421618245 1 0 0
483 17 2 0.5564 -5.709917999247162 -10.821737938064738 -6.6041988524020026 0 0 0
1487 0 4 -1.1 -7.925953924681496 -3.9694742620295744 -0.4262895253817584 2 0 0
978 182 2 0.5564 -6.826463100647503 -7.9153911718653855 -2.236794969171622 2 0 0
589 53 1 -1.1128 -4.28319599000699 -3.5897942116070642 -1.972878483138624 2 0 0
1257 275 2 0.5564 -9.82763990269955 -7.83578682991919 -1.0037599749899555 2 0 0
1095 221 2 0.5564 -7.995290636982974 -2.054238714783898 -1.9350229890021573 1 0 0
1068 212 2 0.5564 -9.139801750358043 -7.087573376223303 -3.1434571315047517 1 0 0
1066 212 1 -1.1128 -9.000185758929655 -7.666361875013348 -3.8929491505482257 1 0 0
1093 221 1 -1.1128 -8.044502900146735 -1.721778696822331 -2.8312839898752604 1 0 0
965 178 2 0.5564 -4.425903343848948 -2.2677850817010157 -7.088718016233199 0 0 0
1255 275 1 -1.1128 -9.61094456189514 -8.576735402789593 -0.4378452479190147 2 0 0
976 182 1 -1.1128 -6.763438740677202 -7.220638624945843 -1.5813743976039516 2 0 0
1133 234 2 0.5564 -9.113884894514696 -2.547240510562978 -4.21920031328203 1 0 0
1134 234 2 0.5564 -10.184198809493592 -3.0686154043784764 -5.154343543101325 1 0 0
1132 234 1 -1.1128 -10.007163643620615 -2.891038931302334 -4.230574164261249 1 0 0
541 37 1 -1.1128 -10.97385762461776 -11.978522581162952 -6.681023473067874 0 0 0
643 71 1 -1.1128 9.456816196352436 -11.990397120254702 -3.407330340074292 0 0 0
549 39 2 0.5564 -4.061832413993034 -6.611822618037011 -7.03913147334591 0 0 0
1043 204 2 0.5564 -9.234232870199758 -5.394935134868959 -1.3866477605895011 1 0 0
31 0 5 0 -6.837589429211365 -12.049018728126196 -11.019246535247488 0 0 0
1094 221 2 0.5564 -7.951720307684065 -0.7733826516408867 -2.7408805081098637 1 0 0
1113 227 2 0.5564 -11.01305100401111 -2.0742278102450378 -0.7027851011808575 2 0 0
720 96 2 0.5564 -10.060793611910714 -9.960884461977313 -4.87132938187726 2 0 0
718 96 1 -1.1128 -10.270198930067075 -10.140801639991482 -3.9548027580913963 2 0 0
1139 236 2 0.5564 -10.511470251243615 -1.6806966763914635 -2.994905989456886 2 0 0
719 96 2 0.5564 -11.202384942198547 -10.358042112602176 -3.9597756320631547 2 0 0
1333 301 1 -1.1128 7.515612576843074 -0.1857309811296299 -4.279567649463571 2 0 0
1250 273 2 0.5564 -7.273327023313237 -11.781779578270497 -1.3260761763996929 2 0 0
1067 212 2 0.5564 -9.659636173114581 -8.352790581544008 -3.79222227335506 1 0 0
27 0 5 0 -10.924354228515849 -12.018246386106496 -11.063050046645595 0 0 0
764 111 2 0.5564 -10.153671781626102 -12.041603414801543 -0.6464701877594273 2 0 0
1138 236 1 -1.1128 -10.924876432414663 -1.1521570902504663 -2.312269129935511 2 0 0
1012 194 1 -1.1128 3.8221673255605495 -0.6479550307170016 -1.4654497072481572 1 0 0
708 92 2 0.5564 2.449493544520908 -10.374740728130105 -0.07524343178631884 1 0 0
548 39 2 0.5564 -3.9595179244603877 -5.153038580385177 -6.6474980781899475 0 0 0
482 17 2 0.5564 -4.286554823562116 -10.426506204544719 -6.935447941757998 0 0 0
445 5 1 -1.1128 1.3570119937870713 -11.79491813375809 -6.752898252749345 0 0 0
590 53 2 0.5564 -4.2965777138985946 -2.756807905699971 -1.5015123691188872 2 0 0
25 0 5 0 11.254783340100579 -12.025508203655695 -12.967190765679431 -1 0 0
517 29 1 -1.1128 9.090557654458317 -11.811822769291894 -6.219223450600434 -1 0 0
525 31 2 0.5564 -1.6244986942758435 -5.281033841958927 -0.22208469167950193 2 0 0
818 129 2 0.5564 -10.775158496013868 -4.623464593699709 -3.9715136445733945 1 0 0
663 77 2 0.5564 8.96603136061791 -9.945935743937474 -0.3210575364911205 1 0 0
1044 204 2 0.5564 -10.472415367781235 -5.658742967782479 -2.2168307665813716 1 0 0
1042 204 1 -1.1128 -9.772520818449932 -6.103715372509663 -1.7389749722930743 1 0 0
1379 316 2 0.5564 10.779513979893975 -3.5941820153604143 -0.6044571225453222 1 0 0
47 0 5 0 9.312312137028753 -12.069014490587852 -10.944335707988952 0 0 0
1334 301 2 0.5564 7.229206830293642 -0.8463176754111814 -3.648840510814291 2 0 0
85 0 5 0 11.322821413730503 -12.077213815851058 -8.965457986680187 -1 0 0
897 155 2 0.5564 -10.025519060800894 -0.7108695788118108 -6.46072059552423 0 0 0
1014 194 2 0.5564 3.4734164285256455 -0.30558140965842995 -2.2884723947925765 1 0 0
896 155 2 0.5564 -11.43375351079664 -0.23221131854322483 -6.178488851049698 0 0 0
1185 251 2 0.5564 1.6788743088450544 -11.882474894838376 -4.57561617850192 1 0 0
997 189 1 -1.1128 -1.8543252416074603 -5.426962889293473 -4.050254981813283 2 0 0
558 42 2 0.5564 8.729639880054044 -0.12255114807372644 -5.5779629520958585 0 0 0
499 23 1 -1.1128 -3.90492135211671 -0.9717122456053463 -0.25933018681579334 1 -1 0
977 182 2 0.5564 -6.415200216580193 -7.655765800258058 -0.8031443951091086 2 0 0
524 31 2 0.5564 -1.8585725262370556 -5.488731751085109 -1.7032891686000897 2 0 0
780 116 2 0.5564 -0.7805431821842777 -7.764663092618346 -0.9487745707999808 1 0 0
42 0 5 0 5.3559722118929844 -10.08930836957197 -12.946672676385269 0 0 0
778 116 1 -1.1128 0.14524432526645906 -7.626211037840516 -1.1486184887921882 1 0 0
735 101 2 0.5564 -2.775736029019746 -8.40599127141471 -2.010233484943449 1 0 0
733 101 1 -1.1128 -2.657831536396624 -8.31907612893781 -1.0643102752227134 1 0 0
734 101 2 0.5564 -2.361035995521662 -9.183246035700527 -0.7790569256225583 1 0 0
998 189 2 0.5564 -1.9848762980757955 -4.486323531043574 -4.170173930632878 2 0 0
1183 251 1 -1.1128 1.6982089383764405 -11.872480828671815 -3.6186641244787974 1 0 0
586 52 1 -1.1128 -0.757891555238483 -10.870115746160169 -2.0972513604343974 1 0 0
999 189 2 0.5564 -0.9647688923118142 -5.587825141088657 -4.365033532547099 2 0 0
1119 229 2 0.5564 1.5394941045400878 -5.141337774951898 -0.8719491875205754 1 0 0
1488 0 4 -1.1 -3.1727566947364596 -11.369300611993491 -3.620362353298469 0 1 0
1143 237 2 0.5564 -2.25171049552689 -7.050986099962843 -4.003449028100017 1 0 0
1141 237 1 -1.1128 -2.5246972946187634 -7.917929381508951 -3.703228712916769 1 0 0
647 72 2 0.5564 -2.5467226673892958 -0.775393740158496 -3.0473413130565126 1 -1 0
587 52 2 0.5564 -0.5237235135482083 -10.260866148056351 -2.7974105880878626 1 0 0
1063 211 1 -1.1128 -2.9717660791226432 -2.4386073053308928 -4.137680799873688 1 0 0
983 184 2 0.5564 11.062329583718961 -1.4627326395747204 -7.109487562837126 -1 0 0
1052 207 2 0.5564 2.316938854964878 -1.5755771937760157 -1.1510395031322167 1 0 0
447 5 2 0.5564 2.091178072936626 -11.185890396104321 -6.673203746488792 0 0 0
588 52 2 0.5564 -1.666806729530449 -11.108039585130761 -2.280156728910746 1 0 0
1142 237 2 0.5564 -1.7374437708003745 -8.457108484190714 -3.7792957971617582 1 0 0
1065 211 2 0.5564 -3.737683816128 -2.191994382533704 -4.65609142647896 1 0 0
1117 229 1 -1.1128 0.9573415697072304 -4.926687696044097 -1.6008417137848656 1 0 0
1053 207 2 0.5564 1.584202093435079 -2.8982061140989774 -1.0759078271706775 1 0 0
1118 229 2 0.5564 1.4178446331013475 -5.244704532796211 -2.377409926859265 1 0 0
903 157 2 0.5564 -1.8384355596101956 -0.5752024077988316 -6.582831247711432 0 0 0
580 50 1 -1.1128 -0.10264627623342887 -9.026062805842315 -3.8810820588702133 1 0 0
582 50 2 0.5564 0.4331911134366498 -8.246521595940798 -3.7346203038278882 1 0 0
902 157 2 0.5564 -3.34423168115623 -0.5605850583579234 -6.427076695103282 0 0 0
581 50 2 0.5564 0.016875865250031305 -9.228548416100754 -4.8089569930512885 1 0 0
1331 300 2 0.5564 3.339109915555326 -3.736453204838753 -3.957492831397619 1 0 0
1466 0 3 1.1 3.718664611275049 -7.998229798075455 -2.6990499433506203 2 0 0
1073 214 2 0.5564 0.20440154080834141 -1.8542810244928385 -3.4838517002701583 2 0 0
606 58 2 0.5564 1.2960558221379117 -9.02633397821666 -1.798452020236372 0 0 0
604 58 1 -1.1128 2.1209115462703054 -9.508747569990005 -1.853993891411232 0 0 0
605 58 2 0.5564 1.9420699819304978 -10.219938731850782 -2.4691746732605666 0 0 0
1481 0 4 -1.1 2.0553258060778563 -6.802748877892592 -4.051179950977758 1 0 0
1332 300 2 0.5564 2.310685370676039 -4.8431356392214875 -4.054922437938039 1 0 0
1330 300 1 -1.1128 2.395028704301753 -3.8923146044803234 -3.9838335134633613 1 0 0
659 76 2 0.5564 4.2764458540750505 -10.78553650924103 -3.7861458608534853 1 0 0
887 152 2 0.5564 0.19760327207780734 -2.018051742740985 -6.801675263756358 0 0 0
62 0 5 0 1.2129736928500952 -5.905741426405371 -13.091317489651116 0 0 0
294 0 5 0 -2.6869751916533087 -1.9642118631609997 -8.82428288927827 0 0 0
64 0 5 0 -0.8438915167927429 -6.00915235702745 -11.041499176008555 0 0 0
59 0 5 0 -2.8306403593167517 -8.056249189496558 -10.924845293085582 0 0 0
232 0 5 0 -0.7913289082890238 -1.9214504557394787 -11.006910771347457 0 0 0
885 151 2 0.5564 -1.9232542520630025 -3.336140187025827 -6.474707359295596 0 0 0
889 153 1 -1.1128 1.3294149598463159 -4.129321626245028 -6.5786365323698 0 0 0
883 151 1 -1.1128 -2.5540358817662225 -4.044730865225863 -6.6022933343502865 0 0 0
884 151 2 0.5564 -2.0406804849078752 -4.845356591453858 -6.494031041534707 0 0 0
1058 209 2 0.5564 1.7867990904555928 -7.5128720289583155 -6.040180467547806 0 0 0
530 33 2 0.5564 -1.5723793651298108 -10.98705205174823 -6.338528820258494 0 0 0
969 179 2 0.5564 -2.101567962966886 -7.50331842688857 -6.426903300798505 0 0 0
531 33 2 0.5564 -1.3249979478060352 -9.516045845548309 -6.597060685922284 0 0 0
551 40 2 0.5564 0.027072008946206805 -5.416542885683304 -6.811350171475227 0 0 0
968 179 2 0.5564 -3.2236600994145097 -8.259801371137266 -5.748275742384676 0 0 0
967 179 1 -1.1128 -2.755917147099409 -8.184963792071033 -6.5800358631945555 0 0 0
529 33 1 -1.1128 -0.8726793218912354 -10.353894190594046 -6.498936047546528 0 0 0
550 40 1 -1.1128 -0.5935282773644084 -6.137410119459267 -6.704268398525463 0 0 0
1059 209 2 0.5564 1.9660910191613716 -8.769914614282323 -6.864555665051997 0 0 0
1057 209 1 -1.1128 1.3636730116262252 -8.040747934993998 -6.717353730356872 0 0 0
890 153 2 0.5564 1.5966406063758265 -4.197921416998016 -5.6620502469503995 0 0 0
552 40 2 0.5564 -0.05287319778664836 -6.9265737949567 -6.738476287786024 0 0 0
295 0 5 0 -0.7267861930820364 -3.9864310748717955 -9.073450082948284 0 0 0
891 153 2 0.5564 1.931449676111127 -4.706843294717894 -7.047978457191403 0 0 0
102 0 5 0 -2.7145810696946415 -5.919889915739311 -8.977812525269671 0 0 0
104 0 5 0 1.1808117405358511 -6.026147258836419 -9.174320211509931 0 0 0
103 0 5 0 -0.7695009644151685 -8.09072074185631 -8.98725842058077 0 0 0
90 0 5 0 -2.8880366285802546 -10.128924127994328 -8.803894693695364 0 0 0
92 0 5 0 1.2017190000548557 -10.007753028482325 -9.072073052838844 0 0 0
63 0 5 0 1.218059895313348 -8.03479886178453 -11.097595277084121 0 0 0
34 0 5 0 -2.822686411342562 -10.079385547887533 -13.080323237403647 0 0 0
227 0 5 0 -2.829438020869833 -3.9117200726287296 -10.992438824894526 0 0 0
231 0 5 0 1.2670604774983658 -3.93418102124889 -11.0656851836824 0 0 0
40 0 5 0 -0.8458335261968991 -10.000070232589206 -11.040237680254979 0 0 0
296 0 5 0 1.2756539251684296 -1.901013623929798 -8.981248392903401 0 0 0
886 152 1 -1.1128 -0.6646150308074572 -1.9303767604381112 -6.395271726190499 0 0 0
888 152 2 0.5564 -0.5470433261932467 -2.2687967214282043 -5.5076420995168265 0 0 0
492 20 2 0.5564 2.4996927225485517 -2.828707404698477 -6.789973428786159 0 0 0
38 0 5 0 1.188887645082096 -9.939483183700311 -13.173343009536127 0 0 0
58 0 5 0 -2.8820431636507533 -5.971700954687183 -13.021740079113727 0 0 0
230 0 5 0 1.1832715112170626 -1.929616699369557 -13.046293921575908 0 0 0
61 0 5 0 -0.8647142511804647 -7.980821062938983 -13.102241243844803 0 0 0
226 0 5 0 -2.807589398008314 -1.9129869297452955 -12.908191347626355 0 0 0
229 0 5 0 -0.8283778419749387 -3.9522139276129633 -13.001025381777081 0 0 0
65 0 5 0 3.301003013211628 -7.951171434401671 -13.056259313151243 0 0 0
297 0 5 0 3.288410848817615 -4.014301810824006 -8.966002255609773 0 0 0
233 0 5 0 3.2978030142693098 -3.9325229682016025 -13.00178855094581 0 0 0
236 0 5 0 3.22587454859743 -1.912984073231414 -11.000087325930584 0 0 0
44 0 5 0 3.251386818739911 -9.966763627852771 -11.077039697178558 0 0 0
68 0 5 0 3.2330541372483017 -5.957389738749519 -11.015361043048197 0 0 0
472 14 1 -1.1128 3.5265934660899703 -10.04552313513757 -6.620218052940534 0 0 0
105 0 5 0 3.27245139645214 -7.961405954428603 -9.105830215170483 0 0 0
490 20 1 -1.1128 3.119884753164953 -2.1580172331644722 -6.504070302817147 0 0 0
487 19 1 -1.1128 3.6976766267217607 -5.722104576174334 -6.5803728630329035 0 0 0
488 19 2 0.5564 3.151429065711609 -5.969128594273177 -5.834183035988032 0 0 0
1074 214 2 0.5564 0.8264116994103529 -3.2342533139664775 -3.5098286822660514 2 0 0
1072 214 1 -1.1128 0.06245081680521888 -2.742505064529606 -3.8111849976405594 2 0 0
1051 207 1 -1.1128 1.4973811339360785 -1.9711061575583284 -0.8541326249642273 1 0 0
1022 197 2 0.5564 -1.3889233977216944 -1.3219143931494322 -1.1454772525853565 1 1 0
909 159 2 0.5564 2.2545049856928556 -0.7410674793512074 -6.37110070990524 0 0 0
458 9 2 0.5564 11.801260583723556 -10.565956804277034 -6.8587815520602895 -1 0 0
446 5 2 0.5564 0.5830233989001633 -11.233428280928983 -6.796104380239765 0 0 0
37 0 5 0 -0.7585047849355842 -12.038840123122023 -13.076121821884486 0 0 0
779 116 2 0.5564 0.198782366743929 -6.708128616290325 -1.4141242433357033 1 0 0
1490 0 4 -1.1 4.628871971255418 -7.773555984229132 -0.4991514205186639 2 0 0
527 32 2 0.5564 -3.06711427095483 -12.096943009188925 -5.467456424279946 0 0 0
1023 197 2 0.5564 -0.10210675925596638 -1.564866887268311 -0.3858920228351756 1 1 0
500 23 2 0.5564 -3.4902280198933058 -0.5448113062856884 -1.0090215884836289 1 -1 0
477 15 2 0.5564 6.5344027142191266 -9.25968923655023 -7.0509028812101295 -1 0 0
489 19 2 0.5564 4.270124784823883 -5.033907639247141 -6.241337034447313 0 0 0
491 20 2 0.5564 3.7539599432623545 -2.6314376836194935 -5.965477900631542 0 0 0
542 37 2 0.5564 -10.031242846289887 -11.814459878497816 -6.709956343283353 0 0 0
591 53 2 0.5564 -3.6611838182369416 -4.130832340507491 -1.486422513177187 2 0 0
523 31 1 -1.1128 -2.209241891539411 -5.032848857766843 -0.9381422088786304 2 0 0
519 29 2 0.5564 9.023562558272342 -11.812093459403606 -5.2643725110688795 -1 0 0
646 72 1 -1.1128 -2.7165844949746054 -0.11845757122130793 -2.3721946656670516 1 -1 0
41 0 5 0 3.2279576644625396 -12.026004082515945 -13.033282993953614 0 0 0
469 13 1 -1.1128 7.206512868096113 -5.963750486949363 -6.482638803454031 0 0 0
87 0 5 0 -8.899217847512622 -11.986557382739566 -9.013344648203786 0 0 0
1021 197 1 -1.1128 -0.9794414173070376 -1.1943042758285147 -0.2897602092530886 1 1 0
39 0 5 0 1.2424837367825365 -11.955418364502627 -11.056734862546412 0 0 0
217 0 5 0 11.381097060226004 -4.026308021822319 -13.044952587068 -1 0 0
29 0 5 0 -8.838301778830383 -12.105638684769099 -13.003797304467929 0 0 0
434 1 2 0.5564 8.975800979234656 -8.606997663286545 -7.318976678500554 -1 0 0
35 0 5 0 -2.7535722528629223 -12.027900422549484 -11.01346151435962 0 0 0
1148 239 2 0.5564 11.887196093879757 -8.115969124845199 -0.13871111981155534 0 0 0
1147 239 1 -1.1128 11.989568329567227 -9.006284680587154 -0.47499303848304325 0 0 0
578 49 2 0.5564 11.129141262928146 -10.892107169732277 -0.008818322992191643 1 0 0
795 121 2 0.5564 7.327615006188484 -5.507384313575205 -0.6556771049948092 1 0 0
71 0 5 0 9.367838503396978 -8.035282946450192 -11.024500106165153 0 0 0
1015 195 1 -1.1128 5.363157018877283 -0.13244189543108126 -6.49656517670477 0 0 0
66 0 5 0 5.224530111351804 -5.845740371128374 -13.021709357443129 0 0 0
864 144 2 0.5564 10.878825515543499 -1.7760588846458247 -4.735970909893836 1 0 0
70 0 5 0 9.342198021366016 -6.019479923916313 -13.051727352608003 0 0 0
493 21 1 -1.1128 9.60656708149895 -4.036074637879357 -6.458876385831453 0 0 0
682 84 1 -1.1128 8.35962264948974 -1.490998847874127 -0.3895355423281706 2 0 0
471 13 2 0.5564 8.034780688584187 -6.308665530338741 -6.816219300622798 0 0 0
1105 225 1 -1.1128 7.517547876078614 -10.14112506392019 -3.0705253366364103 1 0 0
694 88 1 -1.1128 10.67957213523923 -0.0417674052766735 -1.06655102813721 1 -1 0
666 78 2 0.5564 8.641815674425379 -5.802045641101036 -3.937728536725522 0 0 0
91 0 5 0 -0.745364064456268 -11.991401124200022 -9.01103908556463 0 0 0
72 0 5 0 7.315587278356941 -5.9536548809438115 -10.985141936342513 0 0 0
982 184 1 -1.1128 11.429875128574576 -1.887868248392565 -6.334643208073302 -1 0 0
494 21 2 0.5564 10.140099684621276 -3.272591008712308 -6.238212197322969 0 0 0
1140 236 2 0.5564 -11.849972566692571 -1.125571146335701 -2.556562609862723 2 0 0
984 184 2 0.5564 12.03971357053537 -2.5377147997586795 -6.684013090385339 -1 0 0
235 0 5 0 5.280480617374925 -3.9050695152381736 -11.034620094206726 0 0 0
577 49 1 -1.1128 10.309690444057157 -11.364741591335408 -0.15506282078618572 1 0 0
876 148 2 0.5564 9.331946844697763 -8.06851747734277 -5.139824641575828 0 0 0
937 169 1 -1.1128 10.905878545771124 -3.991205121545086 -2.3919042019119936 1 0 0
793 121 1 -1.1128 6.796578141211586 -5.857987441398694 -1.3707530778124661 1 0 0
819 129 2 0.5564 -12.096281544208562 -4.928336653636808 -3.298028992179918 1 0 0
108 0 5 0 9.369286002742673 -5.987334752522176 -9.113764435941203 0 0 0
220 0 5 0 11.289277853051342 -1.9687369844248197 -10.974659817757214 -1 0 0
658 76 1 -1.1128 4.685805718949754 -9.922269785536292 -3.8445147668045476 1 0 0
660 76 2 0.5564 5.617464915259805 -10.088238776854707 -3.700493081642399 1 0 0
94 0 5 0 5.2741841063245785 -9.913548561747522 -9.147459719003212 0 0 0
67 0 5 0 5.260121268052643 -7.934013634508023 -11.137219281179506 0 0 0
862 144 1 -1.1128 10.586601582541935 -1.6518923482553187 -3.832957753967758 1 0 0
939 169 2 0.5564 10.087971155190264 -4.461121377347098 -2.5543814133048204 1 0 0
963 177 2 0.5564 -12.05995504730842 -6.720881413482554 -6.586643358621024 0 0 0
459 9 2 0.5564 10.380175942326098 -10.392399376731499 -6.366550651227855 -1 0 0
618 62 2 0.5564 5.480766293358305 -2.9783561275743016 -0.752290300596058 2 0 0
473 14 2 0.5564 4.176478443974479 -10.746845577777753 -6.665594590215769 0 0 0
1224 264 2 0.5564 5.24860296647942 -1.423676003353436 -2.2313857750416957 1 0 0
239 0 5 0 9.316404146522238 -3.975523775576792 -11.078180709108812 0 0 0
644 71 2 0.5564 10.192070873903297 -11.383891287957086 -3.3189057247663576 0 0 0
69 0 5 0 7.284821698840952 -8.06243541209708 -13.007229672993082 0 0 0
474 14 2 0.5564 4.032553872607833 -9.241542404264482 -6.738006620582429 0 0 0
52 0 5 0 11.368967678734652 -6.027265972824519 -11.024384411457115 -1 0 0
962 177 2 0.5564 11.835177150415257 -5.769946703093015 -5.4602841595677205 -1 0 0
43 0 5 0 5.361455227022447 -12.057420266392105 -11.007118598414948 0 0 0
1477 0 4 -1.1 5.210973645171069 -3.5658649202650805 -5.01493307113651 0 0 0
794 121 2 0.5564 6.215085378644077 -6.49109937852509 -0.9497521027123258 1 0 0
1114 228 1 -1.1128 5.470430340678423 -6.675648147348358 -3.7080189308871305 1 0 0
1115 228 2 0.5564 5.98295812541833 -6.379522267642955 -2.9557677931386466 1 0 0
664 78 1 -1.1128 8.342919518551104 -5.022476529549937 -3.4695635948371377 0 0 0
863 144 2 0.5564 10.542748155789253 -0.7019978507894494 -3.723380201583349 1 0 0
661 77 1 -1.1128 8.32626840225082 -9.32895337683711 -0.6764436124757286 1 0 0
914 161 2 0.5564 8.089343265661537 -1.1799062590055118 -6.983162289665658 0 0 0
299 0 5 0 7.251260807822411 -4.021141648656475 -8.885583405194978 0 0 0
1121 230 2 0.5564 11.560852181831555 -9.360792769954536 -2.222435388392714 1 0 0
466 12 1 -1.1128 5.302638051488575 -7.788347383344866 -6.559442811916851 0 0 0
1122 230 2 0.5564 10.772448269376635 -8.922192286617477 -3.4381432530377927 1 0 0
475 15 1 -1.1128 7.094831796273936 -10.004940493773523 -6.834742534327435 -1 0 0
913 161 1 -1.1128 7.384645676850944 -1.81980759238976 -6.88220015520257 0 0 0
289 0 5 0 11.384633478336056 -3.979901960037188 -8.992071056701509 -1 0 0
495 21 2 0.5564 10.184601928953018 -4.784182364874164 -6.308975301378985 0 0 0
1106 225 2 0.5564 7.698875839486833 -9.75832223324388 -2.21214174299598 1 0 0
874 148 1 -1.1128 9.159511629746799 -8.032500071897344 -4.198968743397801 0 0 0
1120 230 1 -1.1128 11.217668481057256 -9.67916125482205 -3.057370471387833 1 0 0
46 0 5 0 9.318525446618493 -10.028167642187698 -13.018299891363705 0 0 0
938 169 2 0.5564 10.791575129706603 -3.1502878193307406 -2.8346456737198626 1 0 0
234 0 5 0 5.3129668165230735 -1.949223391619501 -13.089724311376937 0 0 0
1116 228 2 0.5564 5.323037088671679 -5.883524034949522 -4.22477740159062 1 0 0
1222 264 1 -1.1128 5.979689863051346 -1.9846386830354499 -2.4902881451169945 1 0 0
875 148 2 0.5564 8.338572568160409 -8.5117657714451 -4.086908457753307 0 0 0
1462 0 3 1.1 7.502140625892465 -3.7984744600978444 -5.810697075118843 0 0 0
106 0 5 0 5.285570428491835 -6.032324584707083 -9.050645858987455 0 0 0
48 0 5 0 7.369034628627167 -10.094823360052109 -10.962065277125873 0 0 0
470 13 2 0.5564 6.54976949770018 -6.599007468913144 -6.767842426202559 0 0 0
1017 195 2 0.5564 4.7623958563144635 -0.8099347567662952 -6.186253544781886 0 0 0
237 0 5 0 7.358340645868426 -3.9205739912468904 -13.002721348583806 0 0 0
433 1 1 -1.1128 9.232713768829143 -7.794977011302028 -6.882127389797239 -1 0 0
961 177 1 -1.1128 11.653570762302007 -5.947796310258425 -6.383121683277898 -1 0 0
817 129 1 -1.1128 -11.45097204510469 -5.29766266988466 -3.900836214714642 1 0 0
696 88 2 0.5564 9.94652623814996 -0.6393876927332369 -0.9192712468660252 1 -1 0
97 0 5 0 11.413175313532806 -7.9577861968207015 -8.992213382752064 -1 0 0
467 12 2 0.5564 4.60366991399119 -7.138562962910301 -6.633078936350936 0 0 0
238 0 5 0 9.381439080697492 -1.9379276814980184 -13.146332417765654 0 0 0
683 84 2 0.5564 7.7305585271374 -1.7625067468796614 -1.0579397427720911 2 0 0
28 0 5 0 11.401260246031095 -9.958444984933388 -11.008779854633502 -1 0 0
298 0 5 0 5.321187214963102 -1.9415930288276004 -9.054410933408901 0 0 0
1107 225 2 0.5564 8.163772670127914 -10.841279195150003 -3.1623891627353053 1 0 0
1223 264 2 0.5564 5.637038906407144 -2.5055630133527647 -3.216541992346438 1 0 0
915 161 2 0.5564 6.587187269331699 -1.2927508647461432 -6.832528945547335 0 0 0
468 12 2 0.5564 5.547360016027939 -7.77378924817548 -5.634162640845114 0 0 0
300 0 5 0 9.280269978881806 -1.9537290607981188 -9.053082574026222 0 0 0
457 9 1 -1.1128 11.178458169905726 -9.902058758445522 -6.562777660558393 -1 0 0
435 1 2 0.5564 10.163914696862902 -7.699178500991534 -7.082035340928385 -1 0 0
96 0 5 0 9.302721870283126 -9.99812032936262 -8.93857556542021 0 0 0
49 0 5 0 11.26531121521136 -8.042895790881195 -13.028951667460134 -1 0 0
476 15 2 0.5564 6.492829535719869 -10.745913377619054 -6.765762014751971 -1 0 0
518 29 2 0.5564 8.430108451279283 -11.181125767644879 -6.5059792933365745 -1 0 0
240 0 5 0 7.347359108996217 -1.931313611601932 -11.063769355124425 0 0 0
107 0 5 0 7.293001883723961 -7.9911281623884545 -9.124613298680753 0 0 0
665 78 2 0.5564 7.989122428276769 -5.358094052546875 -2.6459098199784465 0 0 0
1149 239 2 0.5564 -11.340910389507336 -9.23298908147826 -0.2809581061884474 1 0 0
797 122 2 0.5564 -4.340018789532766 -8.616716462532775 -0.41396777145957736 2 0 0
463 11 1 -1.1128 5.166968903158698 -12.05654434527321 -6.646543915390026 0 0 0
33 0 5 0 -4.789070303544143 -12.0831346853923 -13.00730850884741 0 0 0
93 0 5 0 3.3767359297873467 -11.936947418956965 -9.010413762795833 0 0 0
1016 195 2 0.5564 6.066861599345081 -0.12022192841600012 -5.847784406730019 0 0 0
307 0 5 0 -0.6877874284980395 -0.01299114451089147 -8.996403070250935 0 0 0
1249 273 1 -1.1128 -6.474533819063786 -12.07150304450466 -1.7667411346691524 2 0 0
1112 227 2 0.5564 -9.914180378322545 -2.9699531932837226 -0.17169840391572008 2 0 0
579 49 2 0.5564 10.559648007332703 -12.118908208698514 -0.6889149382595862 1 0 0
662 77 2 0.5564 8.252237569109411 -8.648181356719427 -0.007640354899966378 1 0 0
687 85 2 0.5564 -8.21324240508949 -9.311324211365122 7.105651000122498 0 0 0
685 85 1 -1.1128 -8.029232348451263 -8.441274784761756 6.751564055259361 0 0 0
686 85 2 0.5564 -8.099003475406352 -8.548543685686376 5.8029573214168435 0 0 0
850 140 1 -1.1128 -7.601325533398076 -4.153818997280585 6.516883576149334 1 0 0
852 140 2 0.5564 -7.250722542145943 -3.325055899286676 6.843193195728171 1 0 0
851 140 2 0.5564 -6.8769350956831765 -4.772983434994444 6.607218091604772 1 0 0