LAMMPS data file via write_data, version 2 Aug 2023, timestep = 1000000, units = real

1491 atoms
5 atom types
686 bonds
1 bond types
343 angles
1 angle types

-12.120000000000001 12.120000000000001 xlo xhi
-12.120000000000001 12.120000000000001 ylo yhi
-28.28 28.28 zlo zhi

Masses

1 15.9994
2 1.008
3 28.99
4 35.453
5 26.9815

Pair Coeffs # lj/cut/tip4p/long

1 0.185199 3.1589
2 0 0
3 0.0469 2.4299
4 0.15 4.0447
5 11.697 2.574

Bond Coeffs # harmonic

1 0 0.9572

Angle Coeffs # harmonic

1 0 104.52

Atoms # full

86 0 5 0 -11.013561799300787 -10.084510849222054 -8.993877007860418 0 0 0
484 18 1 -1.1128 -6.363340107999856 -8.3828526496336 -6.323566243892191 0 0 0
451 7 1 -1.1128 -10.491687264906366 -8.261385309172363 -6.249779903724285 1 0 0
544 38 1 -1.1128 -8.79540419907531 -6.257902343005133 -6.731246943901452 0 0 0
545 38 2 0.5564 -9.307627372154654 -7.066474441244748 -6.724470875780937 0 0 0
452 7 2 0.5564 -10.77496762180261 -8.091651263822406 -5.351359218182878 1 0 0
453 7 2 0.5564 -9.849924230396015 -8.967076796896215 -6.169777123978363 1 0 0
485 18 2 0.5564 -6.3247324143859105 -8.13738544681175 -5.399180616372272 0 0 0
546 38 2 0.5564 -8.016747505932699 -6.471390478995427 -7.245435473897534 0 0 0
486 18 2 0.5564 -5.644934421195975 -9.00522618759021 -6.436789381807663 0 0 0
1153 241 1 -1.1128 -6.559622195096138 -4.13588063176281 -6.5716959265015635 0 0 0
1045 205 1 -1.1128 -10.952625846373254 -3.907277244245762 -6.639516047523197 0 0 0
1154 241 2 0.5564 -6.135816586943505 -3.2866975975066772 -6.696312677414986 0 0 0
1155 241 2 0.5564 -5.838136961689474 -4.764853575660616 -6.560904326591036 0 0 0
1047 205 2 0.5564 -11.538883561534819 -3.1550913517610266 -6.721521722348002 0 0 0
1046 205 2 0.5564 -11.512677667597169 -4.666724387287919 -6.800101812239586 0 0 0
291 0 5 0 -8.780884323392396 -4.050454514539658 -8.920256995821916 0 0 0
100 0 5 0 -6.7849783033549125 -6.077885748006427 -9.023411267771545 0 0 0
99 0 5 0 -8.895414054413212 -8.168500887711787 -8.969209709201797 0 0 0
88 0 5 0 -6.7825817974015425 -10.070286701805287 -8.998811002090838 0 0 0
98 0 5 0 -10.787227430760586 -5.98753185810106 -9.074986120202436 0 0 0
55 0 5 0 -6.8137663270692475 -8.088204831036709 -11.066583333412503 0 0 0
56 0 5 0 -8.77283608022349 -6.000312357983476 -10.969236848977708 0 0 0
219 0 5 0 -10.861116049942325 -3.991489082484473 -11.045637312003736 0 0 0
223 0 5 0 -6.826955614268071 -4.0108022246159765 -10.904481609806382 0 0 0
32 0 5 0 -8.788801960155416 -10.054589809463302 -11.050872872318765 0 0 0
51 0 5 0 -10.885989777860258 -7.972577003148614 -10.989445256645057 0 0 0
30 0 5 0 -6.780378389349395 -10.074624968502304 -13.075376441074171 0 0 0
222 0 5 0 -6.857612019753043 -2.0192481764025785 -12.955519485120107 0 0 0
218 0 5 0 -10.850533761294178 -1.8942296659768105 -12.941570740590818 0 0 0
292 0 5 0 -6.8251461193343665 -1.9361263661194708 -8.883540500418887 0 0 0
221 0 5 0 -8.890478037880975 -3.9771070298098987 -12.991552495394352 0 0 0
224 0 5 0 -8.78268996112672 -1.9305791032505708 -10.914385992694303 0 0 0
290 0 5 0 -10.85415551592731 -1.955503870545067 -8.993690881007815 0 0 0
50 0 5 0 -10.798147555927487 -6.061983422715616 -13.088068543083603 0 0 0
54 0 5 0 -6.767533739640527 -5.969908296381196 -13.03982903358601 0 0 0
53 0 5 0 -8.813944427940037 -8.002103710671468 -12.963295756498255 0 0 0
26 0 5 0 -10.748544735958273 -10.02115974675493 -13.156101682359104 0 0 0
36 0 5 0 -4.820395194203924 -10.00069315069304 -11.041544401187013 0 0 0
481 17 1 -1.1128 -4.306764494123567 -10.143558855272499 -6.442862336691206 0 0 0
101 0 5 0 -4.776087162837403 -8.088460056844758 -8.926693450923635 0 0 0
60 0 5 0 -4.726551690182689 -6.040221781315571 -11.091400835093587 0 0 0
225 0 5 0 -4.726243759555427 -3.8546374560040437 -12.93619564787933 0 0 0
57 0 5 0 -4.723824499845404 -8.05024846917382 -13.120547650623783 0 0 0
1048 206 1 -1.1128 -8.850883085995592 -1.984042969187553 -6.692715398308758 0 0 0
964 178 1 -1.1128 -4.909801745343231 -2.0628510952816193 -6.623543803895769 0 0 0
228 0 5 0 -4.8587237105405805 -1.963803962588123 -10.869826147622257 0 0 0
293 0 5 0 -4.777089833431009 -4.035134940977681 -8.89741019911677 0 0 0
1050 206 2 0.5564 -9.680898594982565 -1.5437556839724307 -6.509922771019157 0 0 0
1049 206 2 0.5564 -8.18169098365162 -1.3375711459884234 -6.467946108026914 0 0 0
1462 0 3 1.1 -8.633064418153332 -4.125622649396959 -5.8691051244348005 2 0 0
1455 341 2 0.5564 -7.638674322255772 -9.635045398246781 -6.665930851710062 4 1 0
1454 341 2 0.5564 -8.44854934983342 -10.908937902280584 -6.780778666544296 4 1 0
1453 341 1 -1.1128 -8.495898353174061 -10.008165856878508 -6.460462935710893 4 1 0
547 39 1 -1.1128 -4.71539593498479 -6.167243434099612 -6.294893391938353 0 0 0
991 187 1 -1.1128 -3.2608961789514916 -7.261445928690903 -1.4618036149578673 18 0 0
1203 257 2 0.5564 -4.225343524480329 -9.74685876107204 -3.8801214698304776 18 1 0
1202 257 2 0.5564 -5.079417640718758 -10.680145935961946 -3.0486061465925487 18 1 0
1201 257 1 -1.1128 -5.093378048338575 -9.828304926039634 -3.484959517391135 18 1 0
611 60 2 0.5564 2.6795912431559747 -1.731808019849576 -0.5573262242517817 15 0 0
1083 217 2 0.5564 -5.7389947795616445 -1.660218064753638 -3.6685492128541775 18 0 0
482 17 2 0.5564 -3.7962695623294067 -10.953227101599136 -6.452228211925266 0 0 0
1081 217 1 -1.1128 -5.834713869250593 -2.49647571018815 -4.124342785039047 18 0 0
678 82 2 0.5564 -5.644736600705094 -8.228638567231313 -3.4287324037997857 17 2 0
1082 217 2 0.5564 -5.293433386083459 -3.106349647509105 -3.6230160445986237 18 0 0
676 82 1 -1.1128 -5.921878503213951 -7.315874837887433 -3.508101458500461 17 2 0
564 44 2 0.5564 -4.382870590809637 -5.316786933809056 -4.691829692798253 16 1 0
480 16 2 0.5564 -6.163869848692161 -11.702964303430447 -6.391928278420132 0 0 0
562 44 1 -1.1128 -4.124413234567861 -5.037568536241662 -3.813503208184508 16 1 0
576 48 2 0.5564 -6.885576713843655 -4.989691349717285 -0.645777904117658 17 0 0
563 44 2 0.5564 -3.4276319906464305 -4.3978914326509235 -3.9603646016021354 16 1 0
965 178 2 0.5564 -4.96638690312305 -2.3238542024049242 -5.704356656030836 0 0 0
715 95 1 -1.1128 -2.6814770792678373 -3.9406934775680145 -1.1544764401561816 17 0 0
677 82 2 0.5564 -5.105570173443204 -6.815984332673319 -3.503586585144033 17 2 0
1041 203 2 0.5564 6.628097783187741 -8.0305272759699 -0.31051303112495643 15 2 0
716 95 2 0.5564 -3.1115838224042527 -4.780867872688801 -1.3136273220682126 17 0 0
543 37 2 0.5564 -11.346646270837304 -11.258425879014577 -7.119297337951741 0 0 0
1334 301 2 0.5564 2.5924435113766444 -8.026337741352888 -0.39320878354682337 17 0 0
809 126 2 0.5564 -6.490770569884825 -0.6560501968736635 -1.8534070842542867 17 0 0
575 48 2 0.5564 -6.331516367827979 -5.413537398564812 -1.9893819823763446 17 0 0
808 126 1 -1.1128 -6.821052422020374 -0.05158391991217458 -2.5180741123636845 17 0 0
572 47 2 0.5564 -6.057952041740922 -8.083993886919437 -1.5661434454438663 17 1 0
571 47 1 -1.1128 -5.864438002597294 -7.837191895358061 -0.6617859439599715 17 1 0
25 0 5 0 11.354505748125819 -12.072063052857288 -13.035135283869105 -1 0 0
1015 195 1 -1.1128 5.486140195968751 -0.1624100720724865 -6.313719289551001 0 0 0
966 178 2 0.5564 -5.4418185204919425 -1.2691998208639517 -6.680861678872041 0 0 0
483 17 2 0.5564 -3.6598817741803815 -9.45048917564214 -6.574998368203684 0 0 0
709 93 1 -1.1128 5.315023896012525 -11.191178606758733 -0.18394236972641773 17 0 0
1227 265 2 0.5564 -5.056637818764735 -2.023484475564463 -0.8697470493812154 7 0 0
573 47 2 0.5564 -5.870402127676798 -6.8800287489244285 -0.6677101731081255 17 1 0
1052 207 2 0.5564 -8.464355940291323 -3.295099931780907 -1.0039000546067893 18 0 0
1053 207 2 0.5564 -7.527646498637895 -2.263806008031541 -1.5962736951697336 18 0 0
1051 207 1 -1.1128 -8.448215054474906 -2.525056656137039 -1.5722351077181629 18 0 0
860 143 2 0.5564 -10.367120594417168 -7.042390308427837 -2.1717848400034607 17 1 0
923 164 2 0.5564 -7.958703116787714 -5.8657027344082024 -4.09810614044576 5 1 0
719 96 2 0.5564 -10.069467407960552 -1.3985657122839907 -1.040774654449904 19 0 0
794 121 2 0.5564 -10.068906838503702 -1.6520437060416 -4.050904979731859 19 1 0
574 48 1 -1.1128 -6.080281730961156 -5.000895330255125 -1.1630500333853033 17 0 0
549 39 2 0.5564 -3.774262182181727 -6.245693083082876 -6.451056939403618 0 0 0
1104 224 2 0.5564 -8.423061151682464 -11.08451717159748 -2.0100376216824682 16 0 0
95 0 5 0 7.333037036408807 -12.004780175569094 -8.955745269615152 0 0 0
1225 265 1 -1.1128 -6.008226877534561 -1.9283059267955107 -0.8285751265790645 7 0 0
922 164 1 -1.1128 -8.541498241594649 -5.166021362970208 -3.8030566640299344 5 1 0
31 0 5 0 -6.8467231132745425 -12.105019993609528 -11.030514202780411 0 0 0
718 96 1 -1.1128 -10.815857413285048 -1.0616221884398436 -0.5451570028852125 19 0 0
924 164 2 0.5564 -9.118693739994459 -5.5870918780210665 -3.1660747353910055 5 1 0
869 146 2 0.5564 -7.283213782341797 -10.275714159730752 -3.8613033843005624 18 1 0
495 21 2 0.5564 10.12524788708002 -3.145559678774382 -6.701343886954389 0 0 0
29 0 5 0 -8.843488778625558 -12.077212389410287 -13.127591803903444 0 0 0
1072 214 1 -1.1128 7.581514521478095 -11.752556630530872 -1.4152300234945503 15 1 0
43 0 5 0 5.367527731878945 -11.962695246361632 -11.043561212013211 0 0 0
433 1 1 -1.1128 9.449843130217912 -7.9110945781991076 -6.661878874611225 -1 0 0
45 0 5 0 7.39203367352172 -12.093386792745003 -12.990239406438917 0 0 0
67 0 5 0 5.335630268481447 -8.014190313737267 -11.041895125959845 0 0 0
1277 282 2 0.5564 11.50768211588278 -7.861720453114354 -3.8098031838377144 18 1 0
859 143 1 -1.1128 -10.576816570999625 -6.108702190846163 -2.1494932665098214 17 1 0
962 177 2 0.5564 -11.882718637181545 -6.830561730388427 -6.763250778779 0 0 0
1016 195 2 0.5564 5.147796690996999 -0.33072487367043824 -5.434281747110805 0 0 0
1276 282 1 -1.1128 -11.86912711368132 -8.195249607077658 -4.054450517993296 19 1 0
1278 282 2 0.5564 -11.621059758937172 -8.772007714857915 -3.331916002848658 19 1 0
834 134 2 0.5564 -4.016119203436655 -0.9749392107341494 -2.9995418651660457 17 0 0
868 146 1 -1.1128 -8.120060771023212 -10.740085696440675 -3.8434622872705746 18 1 0
89 0 5 0 -4.837881597808277 -12.07482949830092 -9.034707411526387 0 0 0
755 108 2 0.5564 -9.187758645456698 -9.185321708781036 -1.8490804038865232 16 0 0
466 12 1 -1.1128 5.716986067453643 -8.43249586505021 -6.385207212469599 0 0 0
993 187 2 0.5564 -2.7079171862742277 -7.419141692432221 -0.6965568717110304 18 0 0
847 139 1 -1.1128 -0.9746931708081048 -5.709152419432997 -3.404049830082267 19 0 0
849 139 2 0.5564 -1.7618944458310366 -6.11162133524071 -3.0372588634514193 19 0 0
992 187 2 0.5564 -4.119613980773535 -7.602420413884128 -1.211737448429377 18 0 0
717 95 2 0.5564 -3.183601903083492 -3.31199311328968 -1.6729546679996596 17 0 0
1102 224 1 -1.1128 -8.403779064643464 -10.970372628447771 -1.0598632933912233 16 0 0
463 11 1 -1.1128 5.2203629398703795 -12.114232872091282 -6.426758615718941 0 0 0
871 147 1 -1.1128 -5.316610598397525 -12.104576867454057 -2.1741446337477544 16 0 0
66 0 5 0 5.391071020684087 -5.955881281825546 -13.044907842220857 0 0 0
33 0 5 0 -4.8473455630531275 -12.109766930599026 -13.048391385768895 0 0 0
93 0 5 0 3.2710298940525573 -12.061542086833644 -9.042857243771975 0 0 0
548 39 2 0.5564 -5.050934769944813 -7.057649032907803 -6.398852205943456 0 0 0
1103 224 2 0.5564 -7.988900045027604 -11.767745034833675 -0.730739868048671 16 0 0
870 146 2 0.5564 -8.473768296680372 -10.63122994955387 -4.726215922934509 18 1 0
783 117 2 0.5564 -0.6256207392295368 -0.217563383487904 -3.1843710282618987 18 0 0
1008 192 2 0.5564 0.8265397275639135 -3.1837086346580525 -1.1567126780700436 16 1 0
1282 284 1 -1.1128 4.562304626918578 -0.6579673744224342 -3.701053355137293 17 1 0
595 55 1 -1.1128 0.9189035647337668 -5.113268608383514 -1.4501298009321153 16 1 0
541 37 1 -1.1128 -10.834247325697007 -11.945846015834586 -6.6937325165549915 0 0 0
625 65 1 -1.1128 3.5823696545697405 -4.624187901609831 -1.4757673932929203 16 0 0
539 36 2 0.5564 -1.47100506811859 -2.5748564812096175 -4.456069112572353 16 0 0
848 139 2 0.5564 -0.6645864778515279 -6.338414962452764 -4.055285299432401 19 0 0
1335 301 2 0.5564 1.3667711825222035 -8.860199800058473 -0.7002977380036558 17 0 0
469 13 1 -1.1128 -0.6857441618554666 -9.760075569139778 -1.2170382589574562 1 0 0
597 55 2 0.5564 0.3925759473113749 -5.3844387685342365 -2.202228233026013 16 1 0
1096 222 1 -1.1128 0.3640205513525295 -7.894147553679058 -4.382359240552734 15 0 0
1098 222 2 0.5564 -0.2173776414996113 -8.604331404517572 -4.110661068030544 15 0 0
538 36 1 -1.1128 -2.016394287915656 -3.3443185672625897 -4.2925578916244085 16 0 0
471 13 2 0.5564 -1.2025664669710798 -9.718174356166896 -2.021612991729021 1 0 0
540 36 2 0.5564 -1.4386153139822677 -3.955120660541739 -3.835007954154434 16 0 0
512 27 2 0.5564 5.311555801857041 -7.9416664969556425 -3.2284513323413155 17 0 0
470 13 2 0.5564 -0.8925526110400799 -10.616666260998226 -0.8432682887160313 1 0 0
1491 0 4 -1.1 -1.9055615425802983 -9.950764790805671 -3.9723873081026384 8 1 0
1097 222 2 0.5564 0.503557898645439 -8.042708184908841 -5.317612988572371 15 0 0
1100 223 2 0.5564 1.586670684665383 -1.8090820219892962 -3.468559776767811 17 0 0
1101 223 2 0.5564 2.043668393327871 -2.7210360333283226 -4.587214494578374 17 0 0
1099 223 1 -1.1128 2.3016893817321535 -2.3907429670660445 -3.726661605658945 17 0 0
627 65 2 0.5564 2.6946947294997856 -4.971891711096532 -1.390162510094664 16 0 0
1464 0 3 1.1 4.589958641497827 -2.7678356344205186 -2.309609985314005 5 0 0
777 115 2 0.5564 2.7169093068811274 -9.118359212166524 -2.439663283994253 15 0 0
775 115 1 -1.1128 2.858950158577662 -8.95764442438304 -3.372519500457924 15 0 0
776 115 2 0.5564 2.024343173619026 -8.609142138752146 -3.685832815330377 15 0 0
855 141 2 0.5564 3.692612586610106 -7.3435010719902865 -3.5322095456543843 16 1 0
1014 194 2 0.5564 2.6119070023594206 -10.53043646589114 -4.078724216215755 15 0 0
853 141 1 -1.1128 4.190563711313472 -6.535265568350821 -3.6547212139145158 16 1 0
854 141 2 0.5564 3.8666964657215246 -5.94797058754445 -2.97177672834927 16 1 0
1152 240 2 0.5564 -0.9301811756868525 -10.213823594374364 -5.858812595421642 7 0 0
1151 240 2 0.5564 0.19123682094509087 -10.744903650425563 -6.726153863202326 7 0 0
1150 240 1 -1.1128 -0.4971640535299835 -10.080235918663869 -6.701941751119854 7 0 0
946 172 1 -1.1128 3.4698664040970195 -1.9516555710171406 -6.545792486639954 2 0 0
887 152 2 0.5564 -1.2134631961131057 -1.4744518999537854 -6.5529966059272144 0 0 0
62 0 5 0 1.2275148131073172 -5.837228524619328 -13.06091056265654 0 0 0
294 0 5 0 -2.807081738597375 -2.0306648093645827 -8.824156528135008 0 0 0
64 0 5 0 -0.693261480364984 -6.030430983913588 -10.978501677382186 0 0 0
59 0 5 0 -2.766830283468158 -8.01694600661456 -11.050148811972345 0 0 0
232 0 5 0 -0.8211236541141759 -1.9681191378717457 -10.815213829941186 0 0 0
885 151 2 0.5564 -3.31819159998686 -3.3449829807157543 -6.815335413128518 0 0 0
889 153 1 -1.1128 1.278532933433947 -4.115128382416661 -6.509588435713157 0 0 0
883 151 1 -1.1128 -2.8712118538618716 -4.153882901604745 -6.566127515774861 0 0 0
884 151 2 0.5564 -2.371454745214933 -3.9206781485951328 -5.783750927651981 0 0 0
1058 209 2 0.5564 2.2968219201970803 -7.349822709962533 -6.769377873932355 0 0 0
969 179 2 0.5564 -1.756407517776874 -8.48575342505355 -6.770342260470375 0 0 0
551 40 2 0.5564 -1.2923039203068996 -5.198263653564384 -6.820850880049603 0 0 0
968 179 2 0.5564 -2.6001893515572654 -8.341429757972518 -5.521700993344645 0 0 0
967 179 1 -1.1128 -2.5794129983756653 -8.115203933885056 -6.451551078476459 0 0 0
550 40 1 -1.1128 -0.789076103093016 -5.986727703064299 -6.617646958332661 0 0 0
1059 209 2 0.5564 0.8139864300171524 -7.372172769668334 -7.07367462763524 0 0 0
1057 209 1 -1.1128 1.535404792506329 -7.9297768048539865 -6.782423926461516 0 0 0
890 153 2 0.5564 0.6868666751016046 -3.3627109767588044 -6.5119210653510935 0 0 0
552 40 2 0.5564 -1.450734199912591 -6.663021106457977 -6.472595338091713 0 0 0
295 0 5 0 -0.7466773547008039 -4.06452871420423 -9.0070474847363 0 0 0
891 153 2 0.5564 0.706199065138875 -4.8709325625399185 -6.641491997980678 0 0 0
102 0 5 0 -2.7778790007419003 -6.110890565613686 -8.915838358136549 0 0 0
104 0 5 0 1.2617846473762686 -6.011093022847187 -9.033528768241315 0 0 0
103 0 5 0 -0.7060813995864275 -8.172615074252032 -8.906812470157783 0 0 0
90 0 5 0 -2.837256573717067 -10.109055508270165 -9.079205505321418 0 0 0
92 0 5 0 1.3341445793661106 -9.996639518327674 -9.007396865300972 0 0 0
63 0 5 0 1.2406007909809091 -7.945707765509345 -11.060064665321613 0 0 0
34 0 5 0 -2.774085208961351 -10.051612410217848 -13.035059092533864 0 0 0
227 0 5 0 -2.738724078475993 -4.028159866601982 -10.889761026021826 0 0 0
231 0 5 0 1.20500918512749 -3.880546607969254 -10.945234629964705 0 0 0
40 0 5 0 -0.8390992639681818 -10.002562817455148 -10.993307805317597 0 0 0
296 0 5 0 1.230045537183253 -1.9258554587640948 -8.862273366041695 0 0 0
886 152 1 -1.1128 -0.3520512102388233 -1.848812604896733 -6.368548776866143 0 0 0
888 152 2 0.5564 0.17737075381972106 -1.1039227512300076 -6.0837553479654725 0 0 0
38 0 5 0 1.2946602548757813 -10.031669894186628 -13.003778817749225 0 0 0
58 0 5 0 -2.751463681596233 -5.975845109985684 -12.984860256879651 0 0 0
230 0 5 0 1.1709361788136259 -1.9103104254176262 -13.002806398604271 0 0 0
61 0 5 0 -0.8091127166307407 -8.039903127910494 -13.064206438611022 0 0 0
226 0 5 0 -2.7859644012689273 -1.938591856161361 -12.864183992911801 0 0 0
229 0 5 0 -0.7829148341347679 -3.8949062986824723 -12.922966379487264 0 0 0
65 0 5 0 3.2838754509794867 -7.97789086571218 -13.062510248829772 0 0 0
297 0 5 0 3.2281056829650416 -3.901295325238352 -8.947242024318093 0 0 0
233 0 5 0 3.3437293621082422 -3.981351337567163 -13.053654109574838 0 0 0
236 0 5 0 3.19316324139477 -1.9238252549154033 -11.000806833507808 0 0 0
44 0 5 0 3.280956521598522 -10.03447025726779 -10.99127791261788 0 0 0
68 0 5 0 3.2417050466039687 -5.917232251866754 -11.014756287610432 0 0 0
105 0 5 0 3.3175411325023227 -8.009986496505926 -9.006257950076371 0 0 0
472 14 1 -1.1128 3.407288940243191 -9.924544706266708 -6.658107695084128 0 0 0
487 19 1 -1.1128 3.257085162268307 -6.001998255798691 -6.381116738063964 0 0 0
474 14 2 0.5564 3.029972582506372 -9.982558196139152 -5.7803351587472775 0 0 0
528 32 2 0.5564 -2.1967356290245297 -11.649274538117847 -7.180188751769719 0 0 0
908 159 2 0.5564 1.9194338604073773 -0.6154308431147706 -6.205349118587506 0 0 0
489 19 2 0.5564 3.484123826601956 -6.133298470001763 -5.460542793065776 0 0 0
1012 194 1 -1.1128 2.4279774106503145 -11.43527888682961 -4.331056539370856 15 0 0
1395 321 2 0.5564 -4.621070911431155 -11.558245663644 -0.6210723828738748 15 -1 0
610 60 1 -1.1128 3.5670385547026346 -1.3778106597775939 -0.6148326741393357 15 0 0
781 117 1 -1.1128 -0.19648148684105077 -1.0655401151243873 -3.298364117872977 18 0 0
473 14 2 0.5564 2.738176512466265 -9.47939644981623 -7.178037784554349 0 0 0
1333 301 1 -1.1128 2.3189635044216654 -8.84984523297761 -0.797300656409443 17 0 0
488 19 2 0.5564 2.6731145380301284 -5.243593855086294 -6.378468479672504 0 0 0
1006 192 1 -1.1128 0.6056799727725191 -2.2923480630576245 -0.886639561897922 16 1 0
1007 192 2 0.5564 -0.07952155363479847 -2.404059124626586 -0.22768045291719965 16 1 0
626 65 2 0.5564 4.13017900841104 -5.243194135975605 -0.9930711439939421 16 0 0
833 134 2 0.5564 -2.8649213949378605 -1.9577036089231363 -3.028076688437274 17 0 0
1023 197 2 0.5564 11.753012326133696 -1.0492422902008984 -1.4361775514019508 18 1 0
41 0 5 0 3.2049595546910132 -12.068706658915259 -12.955799361990643 0 0 0
832 134 1 -1.1128 -3.582856321257751 -1.648654237326905 -2.4755158478453825 17 0 0
756 108 2 0.5564 -10.469014082023117 -9.116648727667368 -1.0456095667119214 16 0 0
612 60 2 0.5564 3.4427888911663387 -0.44931380873508403 -0.8115132609780149 15 0 0
542 37 2 0.5564 -10.995398730399762 -11.821159082924739 -5.758472629567229 0 0 0
596 55 2 0.5564 0.32787318982250085 -5.194827923292886 -0.701642905488099 16 1 0
961 177 1 -1.1128 11.61656308605142 -6.237569313877489 -6.636921104924789 -1 0 0
447 5 2 0.5564 1.4910725467297523 -11.857862836805328 -5.758281870367246 0 0 0
42 0 5 0 5.324648126260547 -10.073705182378085 -13.064492781138203 0 0 0
782 117 2 0.5564 -0.1794586813919834 -1.4458954419034158 -2.4201423319100703 18 0 0
106 0 5 0 5.3919218853476245 -5.980766973921912 -9.094904149702757 0 0 0
37 0 5 0 -0.787876674341618 -12.080717674846667 -13.01399980338229 0 0 0
994 188 1 -1.1128 7.475369705281438 -5.421557667724354 -0.47187540478334644 18 0 0
298 0 5 0 5.361198220419838 -1.8769256224762911 -9.069094439123734 0 0 0
91 0 5 0 -0.791296333438738 -12.001395624785667 -9.051074886958926 0 0 0
457 9 1 -1.1128 11.248890319618262 -10.08927490677994 -6.481840726536875 -1 0 0
913 161 1 -1.1128 7.631989644648862 -1.7061595581906452 -6.552509332000525 0 0 0
47 0 5 0 9.299560060316315 -12.092659976076863 -11.00739885160793 0 0 0
1039 203 1 -1.1128 7.203927338928009 -8.61308057309396 -0.8057440022754376 15 2 0
39 0 5 0 1.2661372517749283 -12.079808010356613 -11.004921115432634 0 0 0
476 15 2 0.5564 6.827329111157782 -9.629233072229054 -5.8154602071306245 -1 0 0
1074 214 2 0.5564 6.8895894663258 -11.296582180382586 -0.9361364069643122 15 1 0
713 94 2 0.5564 5.556755433080553 -3.525568531223518 -5.006976258357036 15 -1 0
714 94 2 0.5564 6.250490036013521 -4.361240248511918 -3.9523261874907445 15 -1 0
712 94 1 -1.1128 5.576855239285446 -3.690457560715416 -4.064300173128015 15 -1 0
513 27 2 0.5564 5.431794643051699 -9.321825639910486 -3.838860643900413 17 0 0
511 27 1 -1.1128 5.869556550738146 -8.719330945131688 -3.2375492218313497 17 0 0
1013 194 2 0.5564 3.0324588176193417 -11.95873678252761 -3.8048851782750637 15 0 0
518 29 2 0.5564 8.533212194931497 -11.56972022004357 -6.654758387122579 -1 0 0
1040 203 2 0.5564 6.797898262174132 -8.673713779778208 -1.6704294612391042 15 2 0
69 0 5 0 7.393790177004963 -7.935577108671309 -13.023337223550454 0 0 0
754 108 1 -1.1128 -9.987072202979206 -8.669770502517203 -1.7414832930681576 16 0 0
915 161 2 0.5564 8.403297223678402 -1.1498628065843837 -6.661525926422442 0 0 0
1283 284 2 0.5564 3.8382302966627373 -1.169320499861263 -4.062202664615152 17 1 0
490 20 1 -1.1128 5.155433379816746 -4.093623221110716 -6.732974985238365 0 0 0
995 188 2 0.5564 7.315346739469596 -4.507066630041443 -0.7049500459182484 18 0 0
984 184 2 0.5564 -11.948939872519423 -1.0768250834440036 -6.3410970539691025 0 0 0
1176 248 2 0.5564 5.9337375180950795 -11.90496157821225 -2.8459264020245136 14 0 0
914 161 2 0.5564 7.982006833731339 -2.5960779663117703 -6.5102981773277815 0 0 0
459 9 2 0.5564 10.663532989191964 -9.333166341034758 -6.524983084836946 -1 0 0
1290 286 2 0.5564 8.454811390067537 -10.957465815393418 -2.6825692979573548 15 1 0
917 162 2 0.5564 11.569299180144835 -4.834776681300403 -3.8767231925676855 17 0 0
1017 195 2 0.5564 6.210286067764187 -0.7802372000405812 -6.4145645291569275 0 0 0
795 121 2 0.5564 -9.487815444028863 -2.598722659234903 -3.02229773379263 19 1 0
983 184 2 0.5564 11.584318157424773 -1.8761082752259888 -5.267060227999181 -1 0 0
1288 286 1 -1.1128 8.893459899011424 -10.452997401307567 -3.3676321072154085 15 1 0
492 20 2 0.5564 5.910810990104064 -4.6604244618351665 -6.889206966955891 0 0 0
1159 243 1 -1.1128 8.069600055663678 -1.1176899487097847 -3.273696853349774 16 -1 0
519 29 2 0.5564 10.046983293082754 -11.566260833675477 -6.635266741870451 -1 0 0
1356 308 2 0.5564 10.96898695072311 -8.824267983950243 -0.6179521309380743 16 0 0
1354 308 1 -1.1128 11.088747875044557 -9.2007153836798 -1.4898295546002598 16 0 0
793 121 1 -1.1128 -10.10476454933345 -2.561064968816419 -3.753200736333346 19 1 0
107 0 5 0 7.31147280043119 -8.023380001226336 -8.996710523666316 0 0 0
1484 0 4 -1.1 6.811179833838503 -2.6676602857702933 -1.1236420173149488 15 0 0
238 0 5 0 9.36861111874261 -1.9101044865334824 -12.933975775852938 0 0 0
239 0 5 0 9.421048117086164 -4.022048943904005 -11.075559974771265 0 0 0
70 0 5 0 9.426294794092811 -5.999359500020112 -13.096900051443624 0 0 0
948 172 2 0.5564 3.733395666726553 -2.8236325316672213 -6.839822287199109 2 0 0
606 58 2 0.5564 9.200133938633584 -7.501746271497213 -4.608109277897515 14 1 0
477 15 2 0.5564 8.233543467684449 -9.660411999016306 -6.375357704809018 -1 0 0
861 143 2 0.5564 -11.0813164782232 -5.9568881335918595 -2.948643363311896 17 1 0
468 12 2 0.5564 4.882707541461875 -8.87584668849384 -6.5388807290391195 0 0 0
300 0 5 0 9.44691310180397 -1.92061150100416 -8.923533057336599 0 0 0
237 0 5 0 7.404365947739696 -3.926770341390258 -13.032202829753631 0 0 0
1021 197 1 -1.1128 10.869095021095244 -0.9496103853451254 -1.789791349087009 18 1 0
235 0 5 0 5.325471906710281 -3.930925966413893 -11.01835635880321 0 0 0
982 184 1 -1.1128 11.674453508226252 -1.7983602967083931 -6.21682786994418 -1 0 0
963 177 2 0.5564 11.74074719421317 -5.882620265126907 -5.756678818408576 -1 0 0
458 9 2 0.5564 11.868205593285323 -9.873840465352673 -5.784489910784574 -1 0 0
96 0 5 0 9.418173170266998 -10.05183759665656 -9.093025962076435 0 0 0
434 1 2 0.5564 10.146878647564185 -7.256142093379867 -6.6238611800341705 -1 0 0
46 0 5 0 9.401901080621045 -10.01610208692612 -13.092803789421474 0 0 0
475 15 1 -1.1128 7.570011436766818 -10.214454405496221 -5.964225150641728 -1 0 0
1160 243 2 0.5564 7.457963339495548 -1.4370947615501917 -2.610311367388898 16 -1 0
947 172 2 0.5564 4.187453601540595 -1.3795937059491834 -6.81796903233378 2 0 0
299 0 5 0 7.403686330208967 -3.8431481224969017 -9.095517029636257 0 0 0
234 0 5 0 5.290701571975469 -1.8709362428420957 -13.035564366529211 0 0 0
217 0 5 0 11.499415869981267 -3.98916048222017 -13.153956451737393 -1 0 0
1355 308 2 0.5564 10.460041584905396 -9.921430057611461 -1.5285042669583597 16 0 0
94 0 5 0 5.386366502618152 -10.089100145199604 -9.04161645259303 0 0 0
72 0 5 0 7.336950098311314 -5.971805765926738 -11.028545680790883 0 0 0
498 22 2 0.5564 10.537615373418138 -5.183559069938617 -1.8628986308816582 16 1 0
996 188 2 0.5564 7.554530262374624 -5.873069442564154 -1.3121767292808166 18 0 0
493 21 1 -1.1128 9.480452175455817 -3.786623222582081 -6.402110507569971 0 0 0
1289 286 2 0.5564 8.283099191269008 -10.46794973536371 -4.1048153244113355 15 1 0
605 58 2 0.5564 9.211201955908132 -8.616529600200748 -3.583887097833084 14 1 0
467 12 2 0.5564 5.550486064759445 -7.519602393043516 -6.619993954753091 0 0 0
97 0 5 0 11.364272043225668 -8.01623909365323 -9.06667166123197 -1 0 0
52 0 5 0 11.408452994791988 -5.942882053615668 -11.013289451925548 -1 0 0
918 162 2 0.5564 -11.286820283695027 -4.451459214553698 -4.356138427730112 18 0 0
28 0 5 0 11.432234066200621 -10.042030974186805 -11.07265589037241 -1 0 0
494 21 2 0.5564 9.629448359509183 -3.8545760315878916 -5.459018682037205 0 0 0
48 0 5 0 7.403088298019017 -9.999247250908876 -11.126233372087064 0 0 0
496 22 1 -1.1128 10.789166056673741 -5.848101554972083 -1.221551754369942 16 1 0
977 182 2 0.5564 7.477061238114292 -6.580172900493731 -3.8273192893569945 17 -1 0
978 182 2 0.5564 8.33742563097567 -5.340982422180719 -3.7005403305038738 17 -1 0
616 62 1 -1.1128 7.508563218689015 -5.895081598473347 -6.6173667378722465 17 0 0
1161 243 2 0.5564 8.295936968800254 -1.894411885183656 -3.7852793504250255 16 -1 0
976 182 1 -1.1128 7.459189147281412 -5.63072458893673 -3.9475739532635172 17 -1 0
618 62 2 0.5564 7.675768745645027 -5.788289222784686 -5.68095025278338 17 0 0
604 58 1 -1.1128 9.378415135952793 -7.679447695955715 -3.684603031619819 14 1 0
108 0 5 0 9.442557352033258 -6.007669252552955 -9.035220206873767 0 0 0
617 62 2 0.5564 8.01217554073983 -5.194837434690676 -7.032447297491144 17 0 0
435 1 2 0.5564 8.670414674848503 -7.417518608034116 -6.916962676195301 -1 0 0
491 20 2 0.5564 4.423496113028713 -4.697902485980764 -6.609227512088992 0 0 0
916 162 1 -1.1128 -11.877389121064734 -5.199692441147655 -4.268751571040679 18 0 0
71 0 5 0 9.385123926424804 -7.948773460030469 -11.049320492065357 0 0 0
49 0 5 0 11.386766458353433 -8.015339696554692 -13.085333777111314 -1 0 0
220 0 5 0 11.380186346884164 -2.0086305522448384 -10.998609261231753 -1 0 0
240 0 5 0 7.331600870147782 -1.8790707791554648 -10.978840426776184 0 0 0
1475 0 3 1.1 9.141800777635044 -2.3901225676315847 -1.4199731085270137 16 0 0
1478 0 4 -1.1 9.9340562221816 -3.8329766128904 -3.248716557011285 10 -1 0
465 11 2 0.5564 4.703731311939101 -11.416872650001714 -6.83048219754196 0 0 0
289 0 5 0 11.414376914215676 -3.991428288252326 -9.034376279175843 -1 0 0
497 22 2 0.5564 10.603582282768638 -6.6815479534104405 -1.6541566311541618 16 1 0
464 11 2 0.5564 5.198524761985632 -11.91764404776121 -5.490217990211039 0 0 0
1022 197 2 0.5564 10.951808216631477 -0.2644231495304289 -2.4530507542999564 18 1 0
257 0 5 0 3.2061597415904832 -0.0374153573843929 -13.052152255684963 0 0 0
898 156 1 -1.1128 -6.941365505961922 -0.12070672532192182 -6.405100139541128 0 0 0
255 0 5 0 1.2308744047410822 -9.723692001111471e-05 -10.953410203092947 0 0 0
899 156 2 0.5564 -6.50063004630383 -0.08520037235158816 -5.556134287847563 0 0 0
87 0 5 0 -8.884086712544585 -12.037066306609345 -9.083129002951775 0 0 0
1467 0 3 1.1 -11.045070678966667 -5.353380941870565 -0.03999844841637258 17 0 0
687 85 2 0.5564 -8.499023070700565 -7.906800400130584 7.20991568520445 0 0 0
685 85 1 -1.1128 -7.898998436611619 -8.23610287019641 6.5407832038864875 0 0 0
686 85 2 0.5564 -7.1879737950119855 -7.595577348837948 6.519844719439393 0 0 0
850 140 1 -1.1128 -7.71323530517252 -4.392493138596294 6.597550190147176 1 0 0
852 140 2 0.5564 -7.265171505456294 -4.535238017430877 5.7638151770213755 1 0 0
851 140 2 0.5564 -8.377197484731733 -3.7310405650014973 6.4030105941965045 1 0 0
1002 190 2 0.5564 -5.238867811469613 -5.7415781502169025 6.732965441992798 0 0 0
620 63 2 0.5564 -10.676957876637982 -5.3235948828477415 6.7733662136569555 1 0 0
1001 190 2 0.5564 -5.100966424183816 -6.41384323079214 5.383544199518296 0 0 0