LAMMPS data file via write_data, version 20 Nov 2019, timestep = 3000000

1118 atoms
2 atom types

-3.0000000000000000e+01 3.0000000000000000e+01 xlo xhi
-3.0000000000000000e+01 3.0000000000000000e+01 ylo yhi
-5.0000000000000000e-01 5.0000000000000000e-01 zlo zhi

Masses

1 1
2 1

Pair Coeffs # lj/cut

1 1 1
2 0.5 3

Atoms # atomic

70 1 -2.5748288904206561e+01 -2.7381453150385305e+01 0.0000000000000000e+00 0 0 0
708 1 -2.4701321722643033e+01 -2.8317005864556819e+01 0.0000000000000000e+00 2 1 0
598 2 -2.0347249880142872e+01 -2.8644823174808241e+01 0.0000000000000000e+00 0 1 0
308 1 -1.6629335907531399e+01 2.9855517043101855e+01 0.0000000000000000e+00 0 -1 0
277 1 -1.5641534118826709e+01 -2.9864084997327581e+01 0.0000000000000000e+00 -1 1 0
977 1 -1.4286652138010009e+01 -2.9404281244247741e+01 0.0000000000000000e+00 1 1 0
876 1 -1.2227171873149278e+01 -2.8872711954573674e+01 0.0000000000000000e+00 1 1 0
608 1 -6.3498481190078016e+00 -2.8665119994063915e+01 0.0000000000000000e+00 0 0 0
1005 1 -3.2285083606738092e+00 -2.8854930126212718e+01 0.0000000000000000e+00 0 0 0
954 1 -3.0787385476737841e+00 2.9990566642235585e+01 0.0000000000000000e+00 -1 0 0
852 1 -6.5397919213012468e-01 -2.8906569260524950e+01 0.0000000000000000e+00 -1 1 0
409 2 3.1863294149659640e+00 -2.8059196584187820e+01 0.0000000000000000e+00 0 1 0
931 1 6.6888002082633067e+00 -2.9934848538874661e+01 0.0000000000000000e+00 1 1 0
435 2 8.5769602187699387e+00 2.8277668709754046e+01 0.0000000000000000e+00 0 0 0
664 1 1.4362195339494720e+01 2.9964246124140150e+01 0.0000000000000000e+00 -1 0 0
902 1 1.6823720838722611e+01 -2.9461030265034065e+01 0.0000000000000000e+00 -1 1 0
1003 1 2.2287609819556732e+01 -2.8762299119574344e+01 0.0000000000000000e+00 1 2 0
244 1 2.5911370768208542e+01 -2.7777774769769078e+01 0.0000000000000000e+00 0 -1 0
721 2 -2.7484279296870593e+01 -2.6716767826386842e+01 0.0000000000000000e+00 0 1 0
905 1 -2.6519708981665850e+01 -2.8263480513926975e+01 0.0000000000000000e+00 1 1 0
23 1 -2.2857196022814666e+01 -2.8139611931333306e+01 0.0000000000000000e+00 1 1 0
341 1 -2.2642926966245369e+01 -2.6929361364477749e+01 0.0000000000000000e+00 1 0 0
508 1 -1.7193953701111603e+01 -2.8917671576655984e+01 0.0000000000000000e+00 0 -1 0
613 1 -1.8412515662835698e+01 -2.8819049963030345e+01 0.0000000000000000e+00 0 0 0
121 1 -1.7659978585092031e+01 -2.7853172626090959e+01 0.0000000000000000e+00 0 1 0
518 1 -1.6231653882463704e+01 -2.8192273694023893e+01 0.0000000000000000e+00 1 -1 0
1042 1 -1.4221581285635942e+01 -2.6786976420607647e+01 0.0000000000000000e+00 1 2 0
343 1 -1.1474683757645213e+01 -2.7268879408616794e+01 0.0000000000000000e+00 -1 0 0
314 1 -1.0352850286786740e+01 -2.7371351295089660e+01 0.0000000000000000e+00 0 0 0
33 1 -5.4274248904178579e+00 -2.7944693624418548e+01 0.0000000000000000e+00 0 0 0
168 1 -3.6764738700371011e+00 -2.7046150212003660e+01 0.0000000000000000e+00 0 -1 0
634 1 -2.2501107830084170e+00 -2.7492446970279953e+01 0.0000000000000000e+00 0 1 0
542 1 -1.6803004544379063e+00 -2.8669102668989051e+01 0.0000000000000000e+00 -1 -1 0
1027 1 -2.5716830845131491e+00 -2.6519132923853778e+01 0.0000000000000000e+00 -1 2 0
266 1 1.1105598635854115e+00 -2.8781317901372038e+01 0.0000000000000000e+00 -1 1 0
274 1 5.1304851304221524e+00 -2.9025693430427289e+01 0.0000000000000000e+00 -1 -1 0
105 1 8.1312478842571156e+00 -2.6852886139264708e+01 0.0000000000000000e+00 1 1 0
153 1 7.6485285733928992e+00 -2.8039943669859706e+01 0.0000000000000000e+00 0 0 0
719 1 9.6177585671392247e+00 -2.6270898453580042e+01 0.0000000000000000e+00 -1 1 0
369 1 8.7491345421405988e+00 -2.8292609757511887e+01 0.0000000000000000e+00 -1 1 0
932 1 1.0897480979404904e+01 -2.8107575068839889e+01 0.0000000000000000e+00 1 0 0
592 1 1.4003812107110305e+01 -2.8349715680046991e+01 0.0000000000000000e+00 0 1 0
869 1 1.5973832187901843e+01 -2.8728799797387911e+01 0.0000000000000000e+00 -1 1 0
861 1 1.5419035337681901e+01 -2.7916403987821688e+01 0.0000000000000000e+00 -1 2 0
788 1 1.6524493447555500e+01 -2.5868057217537821e+01 0.0000000000000000e+00 0 -1 0
286 1 1.9570985086953286e+01 -2.8156352590879266e+01 0.0000000000000000e+00 0 0 0
454 1 2.0852514413450393e+01 -2.8523987401548570e+01 0.0000000000000000e+00 -1 0 0
456 1 2.3347022704394323e+01 -2.8229232028031941e+01 0.0000000000000000e+00 -1 1 0
321 1 2.4081358246960338e+01 -2.7448633038732229e+01 0.0000000000000000e+00 1 0 0
294 1 2.5134399463573907e+01 2.9903571884057239e+01 0.0000000000000000e+00 0 -2 0
774 2 2.9640648951093393e+01 -2.8435600905109908e+01 0.0000000000000000e+00 -1 0 0
956 1 -2.4775814763075712e+01 -2.7246003509113635e+01 0.0000000000000000e+00 0 1 0
63 1 -2.3715460336822954e+01 -2.6777900952009713e+01 0.0000000000000000e+00 -1 0 0
109 1 -1.8913870577416031e+01 -2.7442224842263585e+01 0.0000000000000000e+00 0 -1 0
1018 1 -1.5378316260153028e+01 -2.7454964632127396e+01 0.0000000000000000e+00 0 1 0
824 1 -1.3033636237569780e+01 -2.6529136874308715e+01 0.0000000000000000e+00 1 0 0
691 1 -1.2887334991996475e+01 -2.5433982619949777e+01 0.0000000000000000e+00 0 1 0
69 1 -1.1564704644700457e+01 -2.6111418303629158e+01 0.0000000000000000e+00 1 0 0
866 1 -9.1538382213202656e+00 -2.7795368760991241e+01 0.0000000000000000e+00 1 1 0
541 1 -7.7402001892537164e+00 -2.5636486302651800e+01 0.0000000000000000e+00 -1 1 0
60 1 -6.8494621309978703e+00 -2.7386236336386180e+01 0.0000000000000000e+00 1 -1 0
686 1 -5.3567372678173744e+00 -2.6882497651750757e+01 0.0000000000000000e+00 0 1 0
570 1 -3.4753417217023226e+00 -2.5835107979777487e+01 0.0000000000000000e+00 -1 1 0
595 1 -1.2267455890973602e+00 -2.6458050696750139e+01 0.0000000000000000e+00 0 1 0
1112 1 6.7281364541626931e-01 -2.7334491107033738e+01 0.0000000000000000e+00 0 1 0
387 1 -3.5462887493179759e-02 -2.6520797690197725e+01 0.0000000000000000e+00 1 -1 0
936 1 3.2699290102626275e+00 -2.6110801604917246e+01 0.0000000000000000e+00 1 1 0
465 2 5.9750739773430013e+00 -2.6878372368052002e+01 0.0000000000000000e+00 0 0 0
423 1 1.0733437319186169e+01 -2.7027467563166194e+01 0.0000000000000000e+00 0 0 0
39 1 1.2565185100304159e+01 -2.7580110017834169e+01 0.0000000000000000e+00 0 0 0
732 1 1.3946629009095886e+01 -2.5608819457305280e+01 0.0000000000000000e+00 0 1 0
133 1 2.1084780834724498e+01 -2.6649845885276626e+01 0.0000000000000000e+00 -1 0 0
653 1 1.9911044793650412e+01 -2.5021587167876110e+01 0.0000000000000000e+00 1 0 0
901 1 2.3250983330962118e+01 -2.5850092486485636e+01 0.0000000000000000e+00 -1 2 0
432 1 2.6074308480956773e+01 -2.6598199552949261e+01 0.0000000000000000e+00 -1 2 0
186 1 2.6536966824202764e+01 -2.5568028802494879e+01 0.0000000000000000e+00 -1 0 0
697 2 -2.6123006148077192e+01 -2.4235186470838290e+01 0.0000000000000000e+00 0 1 0
501 1 -2.4048187036385922e+01 -2.4674731353308520e+01 0.0000000000000000e+00 1 1 0
648 2 -2.1974222564816330e+01 -2.4630349055378915e+01 0.0000000000000000e+00 0 1 0
144 1 -1.8545239699768867e+01 -2.3633534905918282e+01 0.0000000000000000e+00 2 0 0
111 1 -1.6091580645100947e+01 -2.5579704209402117e+01 0.0000000000000000e+00 0 0 0
837 1 -1.8044997198131856e+01 -2.6310814353871333e+01 0.0000000000000000e+00 0 1 0
1000 1 -1.8562255844848302e+01 -2.5081992390370605e+01 0.0000000000000000e+00 0 1 0
841 1 -1.4767006942385564e+01 -2.5108503129084539e+01 0.0000000000000000e+00 0 2 0
530 1 -1.3577933162891608e+01 -2.4170528691520740e+01 0.0000000000000000e+00 0 0 0
142 1 -1.2439997245013704e+01 -2.4330966601750216e+01 0.0000000000000000e+00 0 1 0
882 1 -9.5356451387092669e+00 -2.4068431337789402e+01 0.0000000000000000e+00 0 1 0
1016 1 -1.0344742940561337e+01 -2.4727007510518579e+01 0.0000000000000000e+00 1 1 0
290 1 -9.1532588967431749e+00 -2.5656957700119825e+01 0.0000000000000000e+00 2 0 0
557 2 -6.3396426475165599e+00 -2.4087288598453934e+01 0.0000000000000000e+00 1 0 0
747 1 -1.7541785104044509e+00 -2.3768289889641824e+01 0.0000000000000000e+00 0 0 0
448 1 3.0883043597715547e+00 -2.5123465871843621e+01 0.0000000000000000e+00 0 0 0
1029 1 7.6683443116804373e+00 -2.5255283003098793e+01 0.0000000000000000e+00 -1 1 0
1019 1 8.8662189665484252e+00 -2.5432129535532123e+01 0.0000000000000000e+00 0 0 0
214 1 1.2046761255329240e+01 -2.6222196897585423e+01 0.0000000000000000e+00 0 0 0
628 1 1.2267964009755936e+01 -2.5150583439122205e+01 0.0000000000000000e+00 0 1 0
872 1 1.3286576473207621e+01 -2.4634064911061589e+01 0.0000000000000000e+00 1 0 0
729 1 1.5209062166035517e+01 -2.4321612317318426e+01 0.0000000000000000e+00 1 0 0
315 1 1.6433818237627790e+01 -2.3930715655098215e+01 0.0000000000000000e+00 -1 0 0
34 1 2.1081920887446149e+01 -2.4279357075967614e+01 0.0000000000000000e+00 -1 0 0
129 1 2.1248488089643143e+01 -2.5630324904649743e+01 0.0000000000000000e+00 -1 0 0
1023 1 2.3825588051175739e+01 -2.4893223042249215e+01 0.0000000000000000e+00 0 2 0
1031 1 2.4672197835823376e+01 -2.6528858710180167e+01 0.0000000000000000e+00 0 1 0
54 1 2.7594394531619468e+01 -2.5169994883884080e+01 0.0000000000000000e+00 0 -1 0
588 1 -2.8686561897137246e+01 -2.2980907589576706e+01 0.0000000000000000e+00 0 1 0
797 1 -1.9486574284541952e+01 -2.4263989736782893e+01 0.0000000000000000e+00 -1 2 0
740 1 -1.7321776880656525e+01 -2.3679469986398477e+01 0.0000000000000000e+00 0 0 0
114 1 -1.5565941246284453e+01 -2.1437785716579704e+01 0.0000000000000000e+00 0 0 0
1 1 -1.4805450182250253e+01 -2.3922447551982454e+01 0.0000000000000000e+00 -1 1 0
896 1 -1.3100079748649371e+01 -2.3132510951014616e+01 0.0000000000000000e+00 -1 1 0
349 1 -1.1888307330474001e+01 -2.3441582454390264e+01 0.0000000000000000e+00 1 1 0
655 1 -8.6354587059921251e+00 -2.3351616545308723e+01 0.0000000000000000e+00 0 1 0
497 1 -8.3248255173976826e+00 -2.4590452050644821e+01 0.0000000000000000e+00 0 0 0
771 1 -6.8492347460073972e+00 -2.1652162883451425e+01 0.0000000000000000e+00 0 1 0
847 1 -4.1713456231707697e+00 -2.3875958299854091e+01 0.0000000000000000e+00 0 1 0
207 1 -1.5334003316048497e+00 -2.2587729712033646e+01 0.0000000000000000e+00 0 -1 0
735 1 -4.5539252175161421e-01 -2.2472132822251695e+01 0.0000000000000000e+00 1 1 0
516 2 1.1389883055306858e+00 -2.4012734672470256e+01 0.0000000000000000e+00 0 1 0
338 1 6.6704576361788543e+00 -2.5124777171973086e+01 0.0000000000000000e+00 1 1 0
304 1 6.6937346692944457e+00 -2.3352517819522575e+01 0.0000000000000000e+00 0 0 0
282 1 7.3565223256393173e+00 -2.4244228427588034e+01 0.0000000000000000e+00 -1 -1 0
75 1 7.8753296381859421e+00 -2.2934579540769420e+01 0.0000000000000000e+00 0 0 0
817 1 1.0162936730086242e+01 -2.2591481641381101e+01 0.0000000000000000e+00 -1 2 0
993 1 1.1171969886074155e+01 -2.4729686377356064e+01 0.0000000000000000e+00 0 1 0
404 1 1.1072290965926802e+01 -2.3161978816049650e+01 0.0000000000000000e+00 0 0 0
875 1 1.2586460857899304e+01 -2.3704806432811040e+01 0.0000000000000000e+00 -1 0 0
661 1 1.5171962855314959e+01 -2.3212415207605286e+01 0.0000000000000000e+00 -1 0 0
573 2 1.8471234166654000e+01 -2.3135140742058546e+01 0.0000000000000000e+00 0 1 0
671 2 2.2729860199009337e+01 -2.2444304472575272e+01 0.0000000000000000e+00 -1 0 0
622 2 2.5435915644910335e+01 -2.2398019283159989e+01 0.0000000000000000e+00 -1 1 0
185 1 2.7695099760813942e+01 -2.3974412693928791e+01 0.0000000000000000e+00 -1 -1 0
1102 1 -2.9167011480217070e+01 -2.3925465047486316e+01 0.0000000000000000e+00 0 0 0
370 1 -2.5541823072673580e+01 -2.1857979755285825e+01 0.0000000000000000e+00 1 1 0
946 1 -2.4804071492116140e+01 -2.2888131123418155e+01 0.0000000000000000e+00 1 1 0
972 1 -2.0448300908151531e+01 -2.3950408498737062e+01 0.0000000000000000e+00 0 1 0
1057 1 -1.9573714785732481e+01 -2.2727315074063252e+01 0.0000000000000000e+00 2 1 0
832 1 -1.8026385609614472e+01 -2.2570539956084119e+01 0.0000000000000000e+00 0 1 0
485 1 -1.8109437347688058e+01 -2.1391553644997028e+01 0.0000000000000000e+00 0 -1 0
857 1 -1.3859098576699694e+01 -2.1640703870276482e+01 0.0000000000000000e+00 0 1 0
134 1 -1.4076472588138635e+01 -2.2854820994509890e+01 0.0000000000000000e+00 0 1 0
834 1 -1.3156560266391628e+01 -2.0780086953946704e+01 0.0000000000000000e+00 0 1 0
332 1 -1.0950491205493721e+01 -2.2597853561070838e+01 0.0000000000000000e+00 0 -1 0
212 1 -9.9306560449757058e+00 -2.3024318409817461e+01 0.0000000000000000e+00 0 0 0
32 1 -9.1366117714917507e+00 -2.1917634702341765e+01 0.0000000000000000e+00 1 0 0
829 1 2.5205311953115439e+00 -2.1711990917878897e+01 0.0000000000000000e+00 0 1 0
957 1 5.5343872007462958e+00 -2.2583574874369145e+01 0.0000000000000000e+00 -1 1 0
760 1 4.5822525048180189e+00 -2.4346169093260254e+01 0.0000000000000000e+00 0 1 0
997 1 5.5273947728969137e+00 -2.3794299819918912e+01 0.0000000000000000e+00 0 0 0
464 2 9.0709004170552952e+00 -2.1196353243115649e+01 0.0000000000000000e+00 0 0 0
1041 1 1.1119347782903180e+01 -2.1735983857303609e+01 0.0000000000000000e+00 0 0 0
955 1 1.4073144358496609e+01 -2.4015379832770375e+01 0.0000000000000000e+00 -1 1 0
132 1 1.6697220684966371e+01 -2.2365210771519177e+01 0.0000000000000000e+00 1 1 0
644 1 1.7515749493233265e+01 -2.1436333991525391e+01 0.0000000000000000e+00 -1 1 0
914 1 2.7648157449949661e+01 -2.1429398480548457e+01 0.0000000000000000e+00 0 0 0
522 1 2.6609450206290443e+01 -2.1163090386242352e+01 0.0000000000000000e+00 0 0 0
461 2 -2.8090414210013915e+01 -2.1034955978997679e+01 0.0000000000000000e+00 0 0 0
528 1 -2.5961332121802013e+01 -2.0860701316499195e+01 0.0000000000000000e+00 0 0 0
333 1 -2.3448102053185785e+01 -1.9511095641994473e+01 0.0000000000000000e+00 1 0 0
331 1 -2.4006936518661373e+01 -2.2116223327813554e+01 0.0000000000000000e+00 1 0 0
908 1 -2.2783266314005790e+01 -2.0417431833036144e+01 0.0000000000000000e+00 1 1 0
399 1 -2.1462663086143575e+01 -2.2559229470863155e+01 0.0000000000000000e+00 -1 0 0
606 1 -1.9401867535690478e+01 -2.1617038278038649e+01 0.0000000000000000e+00 1 0 0
529 1 -2.1601220657218803e+01 -2.0601461733455331e+01 0.0000000000000000e+00 1 0 0
53 1 -1.9186496299290908e+01 -2.0590268933341385e+01 0.0000000000000000e+00 0 0 0
566 1 -2.0295527924842517e+01 -2.0980196204336085e+01 0.0000000000000000e+00 0 0 0
147 1 -1.8598525709196554e+01 -1.9671464302037837e+01 0.0000000000000000e+00 -1 -1 0
678 1 -1.7090577320053086e+01 -2.1221634754896165e+01 0.0000000000000000e+00 0 1 0
47 1 -1.2098575343625546e+01 -2.0574596130232823e+01 0.0000000000000000e+00 0 0 0
1070 1 -1.1022351776927454e+01 -1.9764379426134514e+01 0.0000000000000000e+00 -1 0 0
221 1 -1.0051842191291854e+01 -2.0544962465918886e+01 0.0000000000000000e+00 1 1 0
939 1 -8.6082766480954103e+00 -2.0410277346864298e+01 0.0000000000000000e+00 0 1 0
630 1 -7.7793221261786609e+00 -2.1152568854687139e+01 0.0000000000000000e+00 1 1 0
589 1 -6.2839648059050335e+00 -2.0695112058634979e+01 0.0000000000000000e+00 -1 0 0
463 2 -4.4044862393518383e+00 -2.2011792329208589e+01 0.0000000000000000e+00 1 1 0
890 1 6.5264491367903386e+00 -2.1453874497760225e+01 0.0000000000000000e+00 0 0 0
982 1 3.4648246973013865e+00 -2.0300444369689366e+01 0.0000000000000000e+00 0 1 0
458 1 6.4116528071948524e+00 -1.9966970650831652e+01 0.0000000000000000e+00 -1 1 0
561 1 7.3432294756652485e+00 -2.0385135551265471e+01 0.0000000000000000e+00 0 1 0
532 1 1.0773267608267735e+01 -2.0202035256262391e+01 0.0000000000000000e+00 -1 0 0
35 1 1.5698525283248840e+01 -1.9791575162711155e+01 0.0000000000000000e+00 0 -1 0
575 2 2.1155175809109338e+01 -2.0008465369251880e+01 0.0000000000000000e+00 -1 1 0
445 1 2.3734750084469653e+01 -2.0598148258949493e+01 0.0000000000000000e+00 0 1 0
635 2 2.4741630966724539e+01 -1.8990843188738680e+01 0.0000000000000000e+00 -1 0 0
893 1 2.7613228805256885e+01 -2.0008193153059974e+01 0.0000000000000000e+00 0 0 0
673 2 2.9477877610747122e+01 -2.2147422497538145e+01 0.0000000000000000e+00 0 0 0
359 1 2.9316255113373352e+01 -1.9191423982464698e+01 0.0000000000000000e+00 0 0 0
992 1 -2.5366314233169003e+01 -1.9201310918280289e+01 0.0000000000000000e+00 0 1 0
728 1 -2.2352027762545902e+01 -1.9389621541038391e+01 0.0000000000000000e+00 1 0 0
867 1 -1.7480519235670705e+01 -1.9144219097498173e+01 0.0000000000000000e+00 1 1 0
559 1 -1.6325753641818189e+01 -2.0545509154738770e+01 0.0000000000000000e+00 0 0 0
988 1 -1.5448215776150537e+01 -1.9932975844193663e+01 0.0000000000000000e+00 1 0 0
340 1 -1.4035373117072229e+01 -1.9390646200377066e+01 0.0000000000000000e+00 -1 0 0
1109 1 -1.1463478953775232e+01 -1.8753930354371182e+01 0.0000000000000000e+00 0 1 0
357 1 -9.4038113683564166e+00 -1.9676128420355973e+01 0.0000000000000000e+00 0 0 0
919 1 -7.6626824182698403e+00 -1.9753673028726190e+01 0.0000000000000000e+00 0 1 0
605 1 -2.7062803351786804e+00 -1.9304609468829234e+01 0.0000000000000000e+00 0 0 0
302 1 -3.5991442272594383e+00 -1.8808668752228947e+01 0.0000000000000000e+00 0 -1 0
556 2 -6.8565413481402016e-01 -1.8783018280742652e+01 0.0000000000000000e+00 1 0 0
535 1 4.4823324077142948e+00 -1.9277554830698513e+01 0.0000000000000000e+00 -1 0 0
261 1 7.3050953196214072e+00 -1.9281461212234799e+01 0.0000000000000000e+00 -1 1 0
381 1 1.0683133166789471e+01 -1.8421203895799540e+01 0.0000000000000000e+00 0 1 0
493 2 1.2847340036534428e+01 -1.9512118429611053e+01 0.0000000000000000e+00 0 0 0
252 1 1.3888686653909945e+01 -1.8239516885296513e+01 0.0000000000000000e+00 0 0 0
287 1 1.9609406807492039e+01 -1.8450772449117405e+01 0.0000000000000000e+00 0 0 0
596 1 2.6619425988535202e+01 -1.9078071140392485e+01 0.0000000000000000e+00 -1 1 0
1058 1 2.8651987374397478e+01 -2.0182353317498603e+01 0.0000000000000000e+00 0 0 0
402 1 2.7969102877302443e+01 -1.8721540508936421e+01 0.0000000000000000e+00 0 0 0
550 2 -2.7786127142408727e+01 -1.7036911308026198e+01 0.0000000000000000e+00 0 0 0
325 1 -2.5467398078502320e+01 -1.8041141389531756e+01 0.0000000000000000e+00 1 0 0
1089 1 -2.4370114351978962e+01 -1.8814070869805025e+01 0.0000000000000000e+00 0 1 0
547 1 -2.2870739093476228e+01 -1.7484680587656786e+01 0.0000000000000000e+00 0 0 0
225 1 -2.2019340713117934e+01 -1.8144731375675306e+01 0.0000000000000000e+00 1 0 0
26 1 -2.0757780365207893e+01 -1.9877302498930280e+01 0.0000000000000000e+00 0 0 0
375 2 -1.7737439646761796e+01 -1.7394942466550241e+01 0.0000000000000000e+00 1 0 0
206 1 -1.2418772099333841e+01 -1.9267655302244805e+01 0.0000000000000000e+00 0 0 0
1006 1 -1.5637951738343238e+01 -1.8366651596121372e+01 0.0000000000000000e+00 0 1 0
177 1 -8.9870318363190886e+00 -1.8040281980637378e+01 0.0000000000000000e+00 1 0 0
1046 1 -7.1796451074265040e+00 -1.8030248449573229e+01 0.0000000000000000e+00 0 1 0
41 1 -6.1063225597521047e+00 -1.8156169411665761e+01 0.0000000000000000e+00 0 0 0
1114 1 -6.2796863887545378e+00 -1.9277648603531162e+01 0.0000000000000000e+00 1 1 0
505 1 -4.8260175879737996e+00 -1.8500870096368757e+01 0.0000000000000000e+00 0 0 0
725 2 -1.7512245463904903e+00 -1.6422755898005310e+01 0.0000000000000000e+00 0 0 0
553 2 1.6171091260715262e+00 -1.6936691937236713e+01 0.0000000000000000e+00 0 0 0
567 1 3.6665122040502749e+00 -1.8103398429014174e+01 0.0000000000000000e+00 0 0 0
224 1 4.8893173111055024e+00 -1.7660087205523073e+01 0.0000000000000000e+00 0 0 0
835 1 5.5599131009227474e+00 -1.8470674927961085e+01 0.0000000000000000e+00 0 0 0
40 1 8.6315332042984174e+00 -1.7510121791419468e+01 0.0000000000000000e+00 1 0 0
894 1 6.6701019863991355e+00 -1.8453287080756905e+01 0.0000000000000000e+00 -1 1 0
531 1 1.1062186128509605e+01 -1.6873578962610157e+01 0.0000000000000000e+00 -1 1 0
139 1 1.2090432763832450e+01 -1.7532493039655513e+01 0.0000000000000000e+00 0 0 0
1037 1 1.5561637221804530e+01 -1.8268230707277418e+01 0.0000000000000000e+00 1 0 0
572 2 1.7587014710555358e+01 -1.9369088570971815e+01 0.0000000000000000e+00 -1 0 0
736 1 2.1304243848522724e+01 -1.7863471390855295e+01 0.0000000000000000e+00 0 2 0
174 1 2.3621304167544057e+01 -1.6713892828821596e+01 0.0000000000000000e+00 0 1 0
68 1 2.6951288129091232e+01 -1.8084955208694346e+01 0.0000000000000000e+00 1 1 0
863 1 2.6651526846068272e+01 -1.6897018624434320e+01 0.0000000000000000e+00 0 1 0
422 1 2.8215445580872380e+01 -1.7589517963953536e+01 0.0000000000000000e+00 -1 0 0
219 1 -2.7406683999080869e+01 -1.5005101548313823e+01 0.0000000000000000e+00 2 0 0
670 2 -2.5395188970251382e+01 -1.5089328477050849e+01 0.0000000000000000e+00 0 1 0
970 1 -2.1747209277238010e+01 -1.5308325287269978e+01 0.0000000000000000e+00 1 0 0
163 1 -1.9106762880743112e+01 -1.8584235665950889e+01 0.0000000000000000e+00 0 -1 0
1002 1 -1.5891839739505562e+01 -1.6291523834782183e+01 0.0000000000000000e+00 1 1 0
288 1 -1.6941989235057299e+01 -1.5330673596982752e+01 0.0000000000000000e+00 1 1 0
960 1 -1.4927502988740839e+01 -1.6335535094575331e+01 0.0000000000000000e+00 0 2 0
386 1 -1.4085279432743226e+01 -1.7211191317173430e+01 0.0000000000000000e+00 1 0 0
292 1 -1.0334524705789288e+01 -1.7847145770409909e+01 0.0000000000000000e+00 0 0 0
354 1 -8.6083304104951406e+00 -1.6280101697892949e+01 0.0000000000000000e+00 -1 0 0
1047 1 -6.0012971384064118e+00 -1.7109858827234433e+01 0.0000000000000000e+00 0 0 0
748 1 -4.9417834185485168e+00 -1.5635396564678372e+01 0.0000000000000000e+00 0 0 0
1001 1 1.5522171566736835e+00 -1.4668362950558183e+01 0.0000000000000000e+00 2 1 0
8 1 3.4832537041782059e+00 -1.6902584639680871e+01 0.0000000000000000e+00 -1 0 0
189 1 6.7547124949053137e+00 -1.4428664509435613e+01 0.0000000000000000e+00 -1 -1 0
513 2 9.1971947674166206e+00 -1.5309210521241395e+01 0.0000000000000000e+00 0 0 0
413 1 1.1685571760532723e+01 -1.5275184288884528e+01 0.0000000000000000e+00 0 1 0
778 2 1.4697638734647931e+01 -1.5736707552179006e+01 0.0000000000000000e+00 0 0 0
2 1 1.7242248069679185e+01 -1.6913045024189827e+01 0.0000000000000000e+00 -1 0 0
545 1 2.2877015800623994e+01 -1.7624798887101502e+01 0.0000000000000000e+00 0 1 0
345 1 2.2638893978508346e+01 -1.6062665024274843e+01 0.0000000000000000e+00 -1 -1 0
533 1 2.8162902019122605e+01 -1.5758876327482151e+01 0.0000000000000000e+00 -1 1 0
826 1 -2.7903501757245628e+01 -1.3953538271342346e+01 0.0000000000000000e+00 1 0 0
108 1 -2.6600229133199718e+01 -1.3334608455013958e+01 0.0000000000000000e+00 0 0 0
969 1 -2.1931118363540069e+01 -1.3712911011826918e+01 0.0000000000000000e+00 0 1 0
1067 1 -2.0861696486856992e+01 -1.4706355515274721e+01 0.0000000000000000e+00 1 0 0
711 1 -1.9412424875663376e+01 -1.5565170432911067e+01 0.0000000000000000e+00 0 1 0
1014 1 -1.6222796256134803e+01 -1.3211409459319698e+01 0.0000000000000000e+00 0 1 0
899 1 -1.5178275702052183e+01 -1.3863718834762322e+01 0.0000000000000000e+00 -1 1 0
916 1 -1.4904124657207422e+01 -1.5055338408240798e+01 0.0000000000000000e+00 0 1 0
650 2 -1.3125683149615323e+01 -1.3089845227998019e+01 0.0000000000000000e+00 0 0 0
791 1 -1.1331341209139305e+01 -1.6349284701091797e+01 0.0000000000000000e+00 1 1 0
146 1 -7.6463077979052878e+00 -1.5808927691444891e+01 0.0000000000000000e+00 2 -1 0
403 1 -3.5974448141721722e+00 -1.6461386878211353e+01 0.0000000000000000e+00 -1 1 0
1053 1 -3.0545628278982582e+00 -1.4950414408312607e+01 0.0000000000000000e+00 0 0 0
74 1 8.2320387392410654e-02 -1.4301990187779257e+01 0.0000000000000000e+00 1 0 0
226 1 3.4890566120182727e+00 -1.5470422986007058e+01 0.0000000000000000e+00 -2 0 0
98 1 8.4926208457149102e+00 -1.3407437584101279e+01 0.0000000000000000e+00 0 0 0
280 1 1.0532106840146668e+01 -1.4138576381742817e+01 0.0000000000000000e+00 0 -1 0
1077 1 1.1516842888916623e+01 -1.4194999476995052e+01 0.0000000000000000e+00 0 1 0
944 1 1.6135263096313061e+01 -1.6635910158652706e+01 0.0000000000000000e+00 1 1 0
373 2 1.8974472690689744e+01 -1.5943901524433524e+01 0.0000000000000000e+00 -1 0 0
600 2 2.5085172106305293e+01 -1.5422073549432914e+01 0.0000000000000000e+00 0 0 0
629 1 2.7102043809470896e+01 -1.5401016065656451e+01 0.0000000000000000e+00 -2 0 0
782 2 2.9971745554599053e+01 -1.4922912437789565e+01 0.0000000000000000e+00 -1 1 0
29 1 -2.8419898123068936e+01 -1.2186096343430002e+01 0.0000000000000000e+00 1 1 0
865 1 -2.6560259553173157e+01 -1.2281271237560413e+01 0.0000000000000000e+00 1 1 0
246 1 -1.9928816713112269e+01 -1.2808055210914400e+01 0.0000000000000000e+00 2 0 0
272 1 -1.7523862853923589e+01 -1.3132515828566643e+01 0.0000000000000000e+00 0 0 0
814 1 -1.5416496695182772e+01 -1.2283360156597917e+01 0.0000000000000000e+00 -1 0 0
922 1 -1.1302890225880581e+01 -1.3136649624647831e+01 0.0000000000000000e+00 0 0 0
913 1 -7.9498580740138811e+00 -1.4529611085316841e+01 0.0000000000000000e+00 0 1 0
44 1 -7.5479857404660011e+00 -1.2973691276407672e+01 0.0000000000000000e+00 -1 1 0
517 2 -5.9251351058068380e+00 -1.3931588702184982e+01 0.0000000000000000e+00 0 0 0
810 1 9.1070900400804533e-01 -1.2647719513503594e+01 0.0000000000000000e+00 0 0 0
5 1 2.9931200849978192e+00 -1.3179376632809118e+01 0.0000000000000000e+00 0 -1 0
398 1 4.1891549300322710e+00 -1.2199835050406756e+01 0.0000000000000000e+00 -1 1 0
495 1 5.1373461674848366e+00 -1.3334927621272580e+01 0.0000000000000000e+00 1 0 0
1004 1 9.9231629084631887e+00 -1.3183991510739814e+01 0.0000000000000000e+00 -1 1 0
962 1 1.2715040942717943e+01 -1.5302562272729904e+01 0.0000000000000000e+00 0 0 0
615 1 1.2115826855003059e+01 -1.2393569362328298e+01 0.0000000000000000e+00 -1 0 0
1069 1 1.4196044948791267e+01 -1.4061800720811204e+01 0.0000000000000000e+00 0 0 0
284 1 1.6832047707645380e+01 -1.5715709781261612e+01 0.0000000000000000e+00 -1 0 0
990 1 1.6605160776632040e+01 -1.4102291750565302e+01 0.0000000000000000e+00 0 0 0
37 1 1.7417704314277739e+01 -1.4784232028699638e+01 0.0000000000000000e+00 -1 0 0
665 1 1.8908093668257713e+01 -1.1969738979661571e+01 0.0000000000000000e+00 -1 0 0
62 1 1.8870255484917241e+01 -1.4019914926150012e+01 0.0000000000000000e+00 -1 0 0
753 2 2.1878891089034774e+01 -1.4320457860459697e+01 0.0000000000000000e+00 0 1 0
659 1 2.5524765724266206e+01 -1.3558556267054255e+01 0.0000000000000000e+00 0 0 0
802 1 2.8874186190392443e+01 -1.2820027841675314e+01 0.0000000000000000e+00 0 0 0
88 1 -2.9425418743108342e+01 -1.2418839832348949e+01 0.0000000000000000e+00 1 0 0
247 1 -2.8730551070021892e+01 -1.1213777715672791e+01 0.0000000000000000e+00 0 1 0
103 1 -2.5487107149503050e+01 -1.2844245536276077e+01 0.0000000000000000e+00 0 -1 0
397 1 -2.4358255825407603e+01 -1.2699609389548804e+01 0.0000000000000000e+00 0 -1 0
1059 1 -2.1115312290395988e+01 -1.2595848074918477e+01 0.0000000000000000e+00 1 2 0
998 1 -2.0361107964325800e+01 -1.1422190274806841e+01 0.0000000000000000e+00 0 1 0
223 1 -1.8900821318381329e+01 -1.0512576219564822e+01 0.0000000000000000e+00 1 1 0
136 1 -1.8809100441914048e+01 -1.1855871027596274e+01 0.0000000000000000e+00 1 -1 0
846 1 -1.0330041817258385e+01 -1.3841870092331666e+01 0.0000000000000000e+00 -1 0 0
203 1 -9.1965463580505293e+00 -1.3328055867888333e+01 0.0000000000000000e+00 0 0 0
418 1 -4.4076010800082006e+00 -1.2609506686798161e+01 0.0000000000000000e+00 1 0 0
320 1 -3.2109089689324142e+00 -1.3086019821225143e+01 0.0000000000000000e+00 1 -2 0
854 1 -4.2529058572900826e+00 -1.1395264513568277e+01 0.0000000000000000e+00 -1 1 0
842 1 2.2324111004281008e-01 -1.1910810636292288e+01 0.0000000000000000e+00 0 1 0
306 1 1.2969148291520243e+00 -1.1623496904361234e+01 0.0000000000000000e+00 0 -1 0
827 1 2.5674294024872468e+00 -1.1557491585781300e+01 0.0000000000000000e+00 0 0 0
821 1 6.7817294250513331e+00 -1.1674776918634457e+01 0.0000000000000000e+00 0 0 0
138 1 8.9250463532452446e+00 -1.2428831612125149e+01 0.0000000000000000e+00 -1 0 0
712 1 1.4737731964729928e+01 -1.2447950490312195e+01 0.0000000000000000e+00 0 0 0
58 1 1.8016475319484314e+01 -1.3293149168663280e+01 0.0000000000000000e+00 0 1 0
951 1 1.9342849769391442e+01 -1.0859162820303316e+01 0.0000000000000000e+00 -1 0 0
259 1 2.2322358113703267e+01 -1.2240115714265686e+01 0.0000000000000000e+00 0 0 0
9 1 2.5700415243163619e+01 -1.1793921079786323e+01 0.0000000000000000e+00 -1 0 0
71 1 2.8834028361884904e+01 -1.1708862603350342e+01 0.0000000000000000e+00 -1 1 0
616 1 -2.9261046634093884e+01 -1.0229503408518115e+01 0.0000000000000000e+00 1 1 0
192 1 -2.7607395770309743e+01 -1.0236471575213253e+01 0.0000000000000000e+00 0 -2 0
726 1 -2.6832314633435583e+01 -1.1154362231442853e+01 0.0000000000000000e+00 1 0 0
38 1 -2.3711446191388983e+01 -1.0427890055210190e+01 0.0000000000000000e+00 1 0 0
291 1 -2.4007561834150017e+01 -1.1553516156287873e+01 0.0000000000000000e+00 1 0 0
715 1 -2.2605593154620681e+01 -1.1766819191046936e+01 0.0000000000000000e+00 0 0 0
87 1 -2.1123514151456572e+01 -1.0119094143636172e+01 0.0000000000000000e+00 1 -1 0
599 2 -1.7095325926190945e+01 -1.1175774337875032e+01 0.0000000000000000e+00 0 0 0
1094 1 -1.3604157089399786e+01 -9.9986112408705541e+00 0.0000000000000000e+00 1 1 0
396 1 -1.0528121148488481e+01 -1.1253814542197439e+01 0.0000000000000000e+00 0 0 0
991 1 -9.5599923616187343e+00 -1.0618222906763643e+01 0.0000000000000000e+00 0 1 0
64 1 -8.5204671596814787e+00 -1.2088104868462191e+01 0.0000000000000000e+00 0 0 0
548 1 -7.7391074259826915e+00 -1.0159754230507140e+01 0.0000000000000000e+00 0 1 0
379 1 -5.3420852748433045e+00 -1.1461929547790703e+01 0.0000000000000000e+00 1 -1 0
757 1 -5.9588338744121527e+00 -1.0525322850533923e+01 0.0000000000000000e+00 0 1 0
591 1 -4.6773719098354842e+00 -1.0396976293574594e+01 0.0000000000000000e+00 0 0 0
540 1 -3.3692781250767259e+00 -1.2120173665838085e+01 0.0000000000000000e+00 1 0 0
452 1 -2.0621601691124849e+00 -1.2121471205036981e+01 0.0000000000000000e+00 1 1 0
767 1 -4.5454542489669222e-02 -1.0482447536413524e+01 0.0000000000000000e+00 -1 0 0
651 2 3.9139546681731257e+00 -1.0168564536656659e+01 0.0000000000000000e+00 0 0 0
97 1 5.7259205435561000e+00 -1.2122548675940708e+01 0.0000000000000000e+00 -1 0 0
104 1 8.7263182618381165e+00 -1.0454891003615332e+01 0.0000000000000000e+00 0 0 0
1055 1 9.9996534467361240e+00 -1.0664042225191880e+01 0.0000000000000000e+00 0 1 0
662 1 9.6360305811057430e+00 -9.5620153089519135e+00 0.0000000000000000e+00 -1 0 0
175 1 1.0546828674117659e+01 -1.1814332360522165e+01 0.0000000000000000e+00 1 0 0
89 1 1.0872645538932023e+01 -8.7220236368297019e+00 0.0000000000000000e+00 2 -1 0
701 1 1.1714379584983957e+01 -1.0180072046093866e+01 0.0000000000000000e+00 1 0 0