LAMMPS data file via write_data, version 20 Nov 2019, timestep = 5000

7720 atoms
6 atom types
3800 bonds
1 bond types
1900 angles
1 angle types

-2.0199999999999999e+01 2.0199999999999999e+01 xlo xhi
-2.0199999999999999e+01 2.0199999999999999e+01 ylo yhi
-5.2520000000000003e+01 5.2520000000000003e+01 zlo zhi

Masses

1 15.9994
2 1.008
3 28.99
4 35.453
5 26.9815
6 26.9815

Pair Coeffs # lj/cut/tip4p/long

1 0.185199 3.1589
2 0 0
3 0.0469 2.4299
4 0.15 4.0447
5 11.697 3.55
6 11.697 3.55

Bond Coeffs # harmonic

1 0 0.9572

Angle Coeffs # harmonic

1 0 104.52

Atoms # full

1001 0 6 0.0000000000000000e+00 -2.0199999999999999e+01 -2.0199999999999999e+01 -4.8665473221082841e+01 0 0 0
1002 0 6 0.0000000000000000e+00 -1.8180000000000000e+01 -1.8180000000000000e+01 -4.8665473221082841e+01 0 0 0
1003 0 6 0.0000000000000000e+00 -1.8180000000000000e+01 -2.0199999999999999e+01 -4.6645473221082831e+01 0 0 0
1004 0 6 0.0000000000000000e+00 -2.0199999999999999e+01 -1.8180000000000000e+01 -4.6645473221082831e+01 0 0 0
1005 0 6 0.0000000000000000e+00 -1.6160000000000000e+01 -2.0199999999999999e+01 -4.8665473221082841e+01 0 0 0
1006 0 6 0.0000000000000000e+00 -1.4140000000000001e+01 -1.8180000000000000e+01 -4.8665473221082841e+01 0 0 0
1007 0 6 0.0000000000000000e+00 -1.4140000000000001e+01 -2.0199999999999999e+01 -4.6645473221082831e+01 0 0 0
1008 0 6 0.0000000000000000e+00 -1.6160000000000000e+01 -1.8180000000000000e+01 -4.6645473221082831e+01 0 0 0
1009 0 6 0.0000000000000000e+00 -1.2120000000000001e+01 -2.0199999999999999e+01 -4.8665473221082841e+01 0 0 0
1012 0 6 0.0000000000000000e+00 -1.2120000000000001e+01 -1.8180000000000000e+01 -4.6645473221082831e+01 0 0 0
1041 0 6 0.0000000000000000e+00 -2.0199999999999999e+01 -1.6160000000000000e+01 -4.8665473221082841e+01 0 0 0
1042 0 6 0.0000000000000000e+00 -1.8180000000000000e+01 -1.4140000000000001e+01 -4.8665473221082841e+01 0 0 0
1043 0 6 0.0000000000000000e+00 -1.8180000000000000e+01 -1.6160000000000000e+01 -4.6645473221082831e+01 0 0 0
1044 0 6 0.0000000000000000e+00 -2.0199999999999999e+01 -1.4140000000000001e+01 -4.6645473221082831e+01 0 0 0
1045 0 6 0.0000000000000000e+00 -1.6160000000000000e+01 -1.6160000000000000e+01 -4.8665473221082841e+01 0 0 0
1046 0 6 0.0000000000000000e+00 -1.4140000000000001e+01 -1.4140000000000001e+01 -4.8665473221082841e+01 0 0 0
1047 0 6 0.0000000000000000e+00 -1.4140000000000001e+01 -1.6160000000000000e+01 -4.6645473221082831e+01 0 0 0
1048 0 6 0.0000000000000000e+00 -1.6160000000000000e+01 -1.4140000000000001e+01 -4.6645473221082831e+01 0 0 0
1049 0 6 0.0000000000000000e+00 -1.2120000000000001e+01 -1.6160000000000000e+01 -4.8665473221082841e+01 0 0 0
1052 0 6 0.0000000000000000e+00 -1.2120000000000001e+01 -1.4140000000000001e+01 -4.6645473221082831e+01 0 0 0
1081 0 6 0.0000000000000000e+00 -2.0199999999999999e+01 -1.2120000000000001e+01 -4.8665473221082841e+01 0 0 0
1083 0 6 0.0000000000000000e+00 -1.8180000000000000e+01 -1.2120000000000001e+01 -4.6645473221082831e+01 0 0 0
1085 0 6 0.0000000000000000e+00 -1.6160000000000000e+01 -1.2120000000000001e+01 -4.8665473221082841e+01 0 0 0
1087 0 6 0.0000000000000000e+00 -1.4140000000000001e+01 -1.2120000000000001e+01 -4.6645473221082831e+01 0 0 0
1089 0 6 0.0000000000000000e+00 -1.2120000000000001e+01 -1.2120000000000001e+01 -4.8665473221082841e+01 0 0 0
1401 0 6 0.0000000000000000e+00 -2.0199999999999999e+01 -2.0199999999999999e+01 -4.4625473221082835e+01 0 0 0
1402 0 6 0.0000000000000000e+00 -1.8180000000000000e+01 -1.8180000000000000e+01 -4.4625473221082835e+01 0 0 0
1405 0 6 0.0000000000000000e+00 -1.6160000000000000e+01 -2.0199999999999999e+01 -4.4625473221082835e+01 0 0 0
1406 0 6 0.0000000000000000e+00 -1.4140000000000001e+01 -1.8180000000000000e+01 -4.4625473221082835e+01 0 0 0
1409 0 6 0.0000000000000000e+00 -1.2120000000000001e+01 -2.0199999999999999e+01 -4.4625473221082835e+01 0 0 0
1441 0 6 0.0000000000000000e+00 -2.0199999999999999e+01 -1.6160000000000000e+01 -4.4625473221082835e+01 0 0 0
1442 0 6 0.0000000000000000e+00 -1.8180000000000000e+01 -1.4140000000000001e+01 -4.4625473221082835e+01 0 0 0
1445 0 6 0.0000000000000000e+00 -1.6160000000000000e+01 -1.6160000000000000e+01 -4.4625473221082835e+01 0 0 0
1446 0 6 0.0000000000000000e+00 -1.4140000000000001e+01 -1.4140000000000001e+01 -4.4625473221082835e+01 0 0 0
1449 0 6 0.0000000000000000e+00 -1.2120000000000001e+01 -1.6160000000000000e+01 -4.4625473221082835e+01 0 0 0
1481 0 6 0.0000000000000000e+00 -2.0199999999999999e+01 -1.2120000000000001e+01 -4.4625473221082835e+01 0 0 0
1485 0 6 0.0000000000000000e+00 -1.6160000000000000e+01 -1.2120000000000001e+01 -4.4625473221082835e+01 0 0 0
1489 0 6 0.0000000000000000e+00 -1.2120000000000001e+01 -1.2120000000000001e+01 -4.4625473221082835e+01 0 0 0
1010 0 6 0.0000000000000000e+00 -1.0100000000000000e+01 -1.8180000000000000e+01 -4.8665473221082841e+01 0 0 0
1011 0 6 0.0000000000000000e+00 -1.0100000000000000e+01 -2.0199999999999999e+01 -4.6645473221082831e+01 0 0 0
1013 0 6 0.0000000000000000e+00 -8.0800000000000001e+00 -2.0199999999999999e+01 -4.8665473221082841e+01 0 0 0
1014 0 6 0.0000000000000000e+00 -6.0600000000000005e+00 -1.8180000000000000e+01 -4.8665473221082841e+01 0 0 0
1015 0 6 0.0000000000000000e+00 -6.0600000000000005e+00 -2.0199999999999999e+01 -4.6645473221082831e+01 0 0 0
1016 0 6 0.0000000000000000e+00 -8.0800000000000001e+00 -1.8180000000000000e+01 -4.6645473221082831e+01 0 0 0
1050 0 6 0.0000000000000000e+00 -1.0100000000000000e+01 -1.4140000000000001e+01 -4.8665473221082841e+01 0 0 0
1051 0 6 0.0000000000000000e+00 -1.0100000000000000e+01 -1.6160000000000000e+01 -4.6645473221082831e+01 0 0 0
1053 0 6 0.0000000000000000e+00 -8.0800000000000001e+00 -1.6160000000000000e+01 -4.8665473221082841e+01 0 0 0
1054 0 6 0.0000000000000000e+00 -6.0600000000000005e+00 -1.4140000000000001e+01 -4.8665473221082841e+01 0 0 0
1055 0 6 0.0000000000000000e+00 -6.0600000000000005e+00 -1.6160000000000000e+01 -4.6645473221082831e+01 0 0 0
1056 0 6 0.0000000000000000e+00 -8.0800000000000001e+00 -1.4140000000000001e+01 -4.6645473221082831e+01 0 0 0
1091 0 6 0.0000000000000000e+00 -1.0100000000000000e+01 -1.2120000000000001e+01 -4.6645473221082831e+01 0 0 0
1093 0 6 0.0000000000000000e+00 -8.0800000000000001e+00 -1.2120000000000001e+01 -4.8665473221082841e+01 0 0 0
1095 0 6 0.0000000000000000e+00 -6.0600000000000005e+00 -1.2120000000000001e+01 -4.6645473221082831e+01 0 0 0
1410 0 6 0.0000000000000000e+00 -1.0100000000000000e+01 -1.8180000000000000e+01 -4.4625473221082835e+01 0 0 0
1413 0 6 0.0000000000000000e+00 -8.0800000000000001e+00 -2.0199999999999999e+01 -4.4625473221082835e+01 0 0 0
1414 0 6 0.0000000000000000e+00 -6.0600000000000005e+00 -1.8180000000000000e+01 -4.4625473221082835e+01 0 0 0
1450 0 6 0.0000000000000000e+00 -1.0100000000000000e+01 -1.4140000000000001e+01 -4.4625473221082835e+01 0 0 0
1453 0 6 0.0000000000000000e+00 -8.0800000000000001e+00 -1.6160000000000000e+01 -4.4625473221082835e+01 0 0 0
1454 0 6 0.0000000000000000e+00 -6.0600000000000005e+00 -1.4140000000000001e+01 -4.4625473221082835e+01 0 0 0
1493 0 6 0.0000000000000000e+00 -8.0800000000000001e+00 -1.2120000000000001e+01 -4.4625473221082835e+01 0 0 0
1017 0 6 0.0000000000000000e+00 -4.0400000000000000e+00 -2.0199999999999999e+01 -4.8665473221082841e+01 0 0 0
1018 0 6 0.0000000000000000e+00 -2.0200000000000000e+00 -1.8180000000000000e+01 -4.8665473221082841e+01 0 0 0
1019 0 6 0.0000000000000000e+00 -2.0200000000000000e+00 -2.0199999999999999e+01 -4.6645473221082831e+01 0 0 0
1020 0 6 0.0000000000000000e+00 -4.0400000000000000e+00 -1.8180000000000000e+01 -4.6645473221082831e+01 0 0 0
1021 0 6 0.0000000000000000e+00 0.0000000000000000e+00 -2.0199999999999999e+01 -4.8665473221082841e+01 0 0 0
1022 0 6 0.0000000000000000e+00 2.0200000000000000e+00 -1.8180000000000000e+01 -4.8665473221082841e+01 0 0 0
1023 0 6 0.0000000000000000e+00 2.0200000000000000e+00 -2.0199999999999999e+01 -4.6645473221082831e+01 0 0 0
1024 0 6 0.0000000000000000e+00 0.0000000000000000e+00 -1.8180000000000000e+01 -4.6645473221082831e+01 0 0 0
1057 0 6 0.0000000000000000e+00 -4.0400000000000000e+00 -1.6160000000000000e+01 -4.8665473221082841e+01 0 0 0
1058 0 6 0.0000000000000000e+00 -2.0200000000000000e+00 -1.4140000000000001e+01 -4.8665473221082841e+01 0 0 0
1059 0 6 0.0000000000000000e+00 -2.0200000000000000e+00 -1.6160000000000000e+01 -4.6645473221082831e+01 0 0 0
1060 0 6 0.0000000000000000e+00 -4.0400000000000000e+00 -1.4140000000000001e+01 -4.6645473221082831e+01 0 0 0
1061 0 6 0.0000000000000000e+00 0.0000000000000000e+00 -1.6160000000000000e+01 -4.8665473221082841e+01 0 0 0
1062 0 6 0.0000000000000000e+00 2.0200000000000000e+00 -1.4140000000000001e+01 -4.8665473221082841e+01 0 0 0
1063 0 6 0.0000000000000000e+00 2.0200000000000000e+00 -1.6160000000000000e+01 -4.6645473221082831e+01 0 0 0
1064 0 6 0.0000000000000000e+00 0.0000000000000000e+00 -1.4140000000000001e+01 -4.6645473221082831e+01 0 0 0
1097 0 6 0.0000000000000000e+00 -4.0400000000000000e+00 -1.2120000000000001e+01 -4.8665473221082841e+01 0 0 0
1099 0 6 0.0000000000000000e+00 -2.0200000000000000e+00 -1.2120000000000001e+01 -4.6645473221082831e+01 0 0 0
1101 0 6 0.0000000000000000e+00 0.0000000000000000e+00 -1.2120000000000001e+01 -4.8665473221082841e+01 0 0 0
1103 0 6 0.0000000000000000e+00 2.0200000000000000e+00 -1.2120000000000001e+01 -4.6645473221082831e+01 0 0 0
1417 0 6 0.0000000000000000e+00 -4.0400000000000000e+00 -2.0199999999999999e+01 -4.4625473221082835e+01 0 0 0
1418 0 6 0.0000000000000000e+00 -2.0200000000000000e+00 -1.8180000000000000e+01 -4.4625473221082835e+01 0 0 0
1421 0 6 0.0000000000000000e+00 0.0000000000000000e+00 -2.0199999999999999e+01 -4.4625473221082835e+01 0 0 0
1422 0 6 0.0000000000000000e+00 2.0200000000000000e+00 -1.8180000000000000e+01 -4.4625473221082835e+01 0 0 0
1457 0 6 0.0000000000000000e+00 -4.0400000000000000e+00 -1.6160000000000000e+01 -4.4625473221082835e+01 0 0 0
1458 0 6 0.0000000000000000e+00 -2.0200000000000000e+00 -1.4140000000000001e+01 -4.4625473221082835e+01 0 0 0
1461 0 6 0.0000000000000000e+00 0.0000000000000000e+00 -1.6160000000000000e+01 -4.4625473221082835e+01 0 0 0
1462 0 6 0.0000000000000000e+00 2.0200000000000000e+00 -1.4140000000000001e+01 -4.4625473221082835e+01 0 0 0
1497 0 6 0.0000000000000000e+00 -4.0400000000000000e+00 -1.2120000000000001e+01 -4.4625473221082835e+01 0 0 0
1501 0 6 0.0000000000000000e+00 0.0000000000000000e+00 -1.2120000000000001e+01 -4.4625473221082835e+01 0 0 0
1025 0 6 0.0000000000000000e+00 4.0400000000000000e+00 -2.0199999999999999e+01 -4.8665473221082841e+01 0 0 0
1026 0 6 0.0000000000000000e+00 6.0600000000000005e+00 -1.8180000000000000e+01 -4.8665473221082841e+01 0 0 0
1027 0 6 0.0000000000000000e+00 6.0600000000000005e+00 -2.0199999999999999e+01 -4.6645473221082831e+01 0 0 0
1028 0 6 0.0000000000000000e+00 4.0400000000000000e+00 -1.8180000000000000e+01 -4.6645473221082831e+01 0 0 0
1029 0 6 0.0000000000000000e+00 8.0800000000000001e+00 -2.0199999999999999e+01 -4.8665473221082841e+01 0 0 0
1030 0 6 0.0000000000000000e+00 1.0100000000000000e+01 -1.8180000000000000e+01 -4.8665473221082841e+01 0 0 0
1031 0 6 0.0000000000000000e+00 1.0100000000000000e+01 -2.0199999999999999e+01 -4.6645473221082831e+01 0 0 0
1032 0 6 0.0000000000000000e+00 8.0800000000000001e+00 -1.8180000000000000e+01 -4.6645473221082831e+01 0 0 0
1065 0 6 0.0000000000000000e+00 4.0400000000000000e+00 -1.6160000000000000e+01 -4.8665473221082841e+01 0 0 0
1066 0 6 0.0000000000000000e+00 6.0600000000000005e+00 -1.4140000000000001e+01 -4.8665473221082841e+01 0 0 0
1067 0 6 0.0000000000000000e+00 6.0600000000000005e+00 -1.6160000000000000e+01 -4.6645473221082831e+01 0 0 0
1068 0 6 0.0000000000000000e+00 4.0400000000000000e+00 -1.4140000000000001e+01 -4.6645473221082831e+01 0 0 0
1069 0 6 0.0000000000000000e+00 8.0800000000000001e+00 -1.6160000000000000e+01 -4.8665473221082841e+01 0 0 0
1070 0 6 0.0000000000000000e+00 1.0100000000000000e+01 -1.4140000000000001e+01 -4.8665473221082841e+01 0 0 0
1071 0 6 0.0000000000000000e+00 1.0100000000000000e+01 -1.6160000000000000e+01 -4.6645473221082831e+01 0 0 0
1072 0 6 0.0000000000000000e+00 8.0800000000000001e+00 -1.4140000000000001e+01 -4.6645473221082831e+01 0 0 0
1105 0 6 0.0000000000000000e+00 4.0400000000000000e+00 -1.2120000000000001e+01 -4.8665473221082841e+01 0 0 0
1107 0 6 0.0000000000000000e+00 6.0600000000000005e+00 -1.2120000000000001e+01 -4.6645473221082831e+01 0 0 0
1109 0 6 0.0000000000000000e+00 8.0800000000000001e+00 -1.2120000000000001e+01 -4.8665473221082841e+01 0 0 0
1111 0 6 0.0000000000000000e+00 1.0100000000000000e+01 -1.2120000000000001e+01 -4.6645473221082831e+01 0 0 0
1425 0 6 0.0000000000000000e+00 4.0400000000000000e+00 -2.0199999999999999e+01 -4.4625473221082835e+01 0 0 0
1426 0 6 0.0000000000000000e+00 6.0600000000000005e+00 -1.8180000000000000e+01 -4.4625473221082835e+01 0 0 0
1429 0 6 0.0000000000000000e+00 8.0800000000000001e+00 -2.0199999999999999e+01 -4.4625473221082835e+01 0 0 0
1430 0 6 0.0000000000000000e+00 1.0100000000000000e+01 -1.8180000000000000e+01 -4.4625473221082835e+01 0 0 0
1465 0 6 0.0000000000000000e+00 4.0400000000000000e+00 -1.6160000000000000e+01 -4.4625473221082835e+01 0 0 0
1466 0 6 0.0000000000000000e+00 6.0600000000000005e+00 -1.4140000000000001e+01 -4.4625473221082835e+01 0 0 0
1469 0 6 0.0000000000000000e+00 8.0800000000000001e+00 -1.6160000000000000e+01 -4.4625473221082835e+01 0 0 0
1470 0 6 0.0000000000000000e+00 1.0100000000000000e+01 -1.4140000000000001e+01 -4.4625473221082835e+01 0 0 0
1505 0 6 0.0000000000000000e+00 4.0400000000000000e+00 -1.2120000000000001e+01 -4.4625473221082835e+01 0 0 0
1509 0 6 0.0000000000000000e+00 8.0800000000000001e+00 -1.2120000000000001e+01 -4.4625473221082835e+01 0 0 0
1033 0 6 0.0000000000000000e+00 1.2120000000000001e+01 -2.0199999999999999e+01 -4.8665473221082841e+01 0 0 0
1034 0 6 0.0000000000000000e+00 1.4140000000000001e+01 -1.8180000000000000e+01 -4.8665473221082841e+01 0 0 0
1035 0 6 0.0000000000000000e+00 1.4140000000000001e+01 -2.0199999999999999e+01 -4.6645473221082831e+01 0 0 0
1036 0 6 0.0000000000000000e+00 1.2120000000000001e+01 -1.8180000000000000e+01 -4.6645473221082831e+01 0 0 0
1037 0 6 0.0000000000000000e+00 1.6160000000000000e+01 -2.0199999999999999e+01 -4.8665473221082841e+01 0 0 0
1038 0 6 0.0000000000000000e+00 1.8180000000000000e+01 -1.8180000000000000e+01 -4.8665473221082841e+01 0 0 0
1039 0 6 0.0000000000000000e+00 1.8180000000000000e+01 -2.0199999999999999e+01 -4.6645473221082831e+01 0 0 0
1040 0 6 0.0000000000000000e+00 1.6160000000000000e+01 -1.8180000000000000e+01 -4.6645473221082831e+01 0 0 0
1073 0 6 0.0000000000000000e+00 1.2120000000000001e+01 -1.6160000000000000e+01 -4.8665473221082841e+01 0 0 0
1074 0 6 0.0000000000000000e+00 1.4140000000000001e+01 -1.4140000000000001e+01 -4.8665473221082841e+01 0 0 0
1075 0 6 0.0000000000000000e+00 1.4140000000000001e+01 -1.6160000000000000e+01 -4.6645473221082831e+01 0 0 0
1076 0 6 0.0000000000000000e+00 1.2120000000000001e+01 -1.4140000000000001e+01 -4.6645473221082831e+01 0 0 0
1077 0 6 0.0000000000000000e+00 1.6160000000000000e+01 -1.6160000000000000e+01 -4.8665473221082841e+01 0 0 0
1078 0 6 0.0000000000000000e+00 1.8180000000000000e+01 -1.4140000000000001e+01 -4.8665473221082841e+01 0 0 0
1079 0 6 0.0000000000000000e+00 1.8180000000000000e+01 -1.6160000000000000e+01 -4.6645473221082831e+01 0 0 0
1080 0 6 0.0000000000000000e+00 1.6160000000000000e+01 -1.4140000000000001e+01 -4.6645473221082831e+01 0 0 0
1113 0 6 0.0000000000000000e+00 1.2120000000000001e+01 -1.2120000000000001e+01 -4.8665473221082841e+01 0 0 0
1115 0 6 0.0000000000000000e+00 1.4140000000000001e+01 -1.2120000000000001e+01 -4.6645473221082831e+01 0 0 0
1117 0 6 0.0000000000000000e+00 1.6160000000000000e+01 -1.2120000000000001e+01 -4.8665473221082841e+01 0 0 0
1119 0 6 0.0000000000000000e+00 1.8180000000000000e+01 -1.2120000000000001e+01 -4.6645473221082831e+01 0 0 0
1433 0 6 0.0000000000000000e+00 1.2120000000000001e+01 -2.0199999999999999e+01 -4.4625473221082835e+01 0 0 0
1434 0 6 0.0000000000000000e+00 1.4140000000000001e+01 -1.8180000000000000e+01 -4.4625473221082835e+01 0 0 0
1437 0 6 0.0000000000000000e+00 1.6160000000000000e+01 -2.0199999999999999e+01 -4.4625473221082835e+01 0 0 0
1438 0 6 0.0000000000000000e+00 1.8180000000000000e+01 -1.8180000000000000e+01 -4.4625473221082835e+01 0 0 0
1473 0 6 0.0000000000000000e+00 1.2120000000000001e+01 -1.6160000000000000e+01 -4.4625473221082835e+01 0 0 0
1474 0 6 0.0000000000000000e+00 1.4140000000000001e+01 -1.4140000000000001e+01 -4.4625473221082835e+01 0 0 0
1477 0 6 0.0000000000000000e+00 1.6160000000000000e+01 -1.6160000000000000e+01 -4.4625473221082835e+01 0 0 0
1478 0 6 0.0000000000000000e+00 1.8180000000000000e+01 -1.4140000000000001e+01 -4.4625473221082835e+01 0 0 0
1513 0 6 0.0000000000000000e+00 1.2120000000000001e+01 -1.2120000000000001e+01 -4.4625473221082835e+01 0 0 0
1517 0 6 0.0000000000000000e+00 1.6160000000000000e+01 -1.2120000000000001e+01 -4.4625473221082835e+01 0 0 0
1082 0 6 0.0000000000000000e+00 -1.8180000000000000e+01 -1.0100000000000000e+01 -4.8665473221082841e+01 0 0 0
1084 0 6 0.0000000000000000e+00 -2.0199999999999999e+01 -1.0100000000000000e+01 -4.6645473221082831e+01 0 0 0
1086 0 6 0.0000000000000000e+00 -1.4140000000000001e+01 -1.0100000000000000e+01 -4.8665473221082841e+01 0 0 0
1088 0 6 0.0000000000000000e+00 -1.6160000000000000e+01 -1.0100000000000000e+01 -4.6645473221082831e+01 0 0 0
1092 0 6 0.0000000000000000e+00 -1.2120000000000001e+01 -1.0100000000000000e+01 -4.6645473221082831e+01 0 0 0
1121 0 6 0.0000000000000000e+00 -2.0199999999999999e+01 -8.0800000000000001e+00 -4.8665473221082841e+01 0 0 0
1122 0 6 0.0000000000000000e+00 -1.8180000000000000e+01 -6.0600000000000005e+00 -4.8665473221082841e+01 0 0 0
1123 0 6 0.0000000000000000e+00 -1.8180000000000000e+01 -8.0800000000000001e+00 -4.6645473221082831e+01 0 0 0
1124 0 6 0.0000000000000000e+00 -2.0199999999999999e+01 -6.0600000000000005e+00 -4.6645473221082831e+01 0 0 0
1125 0 6 0.0000000000000000e+00 -1.6160000000000000e+01 -8.0800000000000001e+00 -4.8665473221082841e+01 0 0 0
1126 0 6 0.0000000000000000e+00 -1.4140000000000001e+01 -6.0600000000000005e+00 -4.8665473221082841e+01 0 0 0
1127 0 6 0.0000000000000000e+00 -1.4140000000000001e+01 -8.0800000000000001e+00 -4.6645473221082831e+01 0 0 0
1128 0 6 0.0000000000000000e+00 -1.6160000000000000e+01 -6.0600000000000005e+00 -4.6645473221082831e+01 0 0 0
1129 0 6 0.0000000000000000e+00 -1.2120000000000001e+01 -8.0800000000000001e+00 -4.8665473221082841e+01 0 0 0
1132 0 6 0.0000000000000000e+00 -1.2120000000000001e+01 -6.0600000000000005e+00 -4.6645473221082831e+01 0 0 0
1482 0 6 0.0000000000000000e+00 -1.8180000000000000e+01 -1.0100000000000000e+01 -4.4625473221082835e+01 0 0 0
1486 0 6 0.0000000000000000e+00 -1.4140000000000001e+01 -1.0100000000000000e+01 -4.4625473221082835e+01 0 0 0
1521 0 6 0.0000000000000000e+00 -2.0199999999999999e+01 -8.0800000000000001e+00 -4.4625473221082835e+01 0 0 0
1522 0 6 0.0000000000000000e+00 -1.8180000000000000e+01 -6.0600000000000005e+00 -4.4625473221082835e+01 0 0 0
1525 0 6 0.0000000000000000e+00 -1.6160000000000000e+01 -8.0800000000000001e+00 -4.4625473221082835e+01 0 0 0
1526 0 6 0.0000000000000000e+00 -1.4140000000000001e+01 -6.0600000000000005e+00 -4.4625473221082835e+01 0 0 0
1529 0 6 0.0000000000000000e+00 -1.2120000000000001e+01 -8.0800000000000001e+00 -4.4625473221082835e+01 0 0 0
1090 0 6 0.0000000000000000e+00 -1.0100000000000000e+01 -1.0100000000000000e+01 -4.8665473221082841e+01 0 0 0
1094 0 6 0.0000000000000000e+00 -6.0600000000000005e+00 -1.0100000000000000e+01 -4.8665473221082841e+01 0 0 0
1096 0 6 0.0000000000000000e+00 -8.0800000000000001e+00 -1.0100000000000000e+01 -4.6645473221082831e+01 0 0 0
1130 0 6 0.0000000000000000e+00 -1.0100000000000000e+01 -6.0600000000000005e+00 -4.8665473221082841e+01 0 0 0
1131 0 6 0.0000000000000000e+00 -1.0100000000000000e+01 -8.0800000000000001e+00 -4.6645473221082831e+01 0 0 0
1133 0 6 0.0000000000000000e+00 -8.0800000000000001e+00 -8.0800000000000001e+00 -4.8665473221082841e+01 0 0 0
1134 0 6 0.0000000000000000e+00 -6.0600000000000005e+00 -6.0600000000000005e+00 -4.8665473221082841e+01 0 0 0
1135 0 6 0.0000000000000000e+00 -6.0600000000000005e+00 -8.0800000000000001e+00 -4.6645473221082831e+01 0 0 0
1136 0 6 0.0000000000000000e+00 -8.0800000000000001e+00 -6.0600000000000005e+00 -4.6645473221082831e+01 0 0 0
1490 0 6 0.0000000000000000e+00 -1.0100000000000000e+01 -1.0100000000000000e+01 -4.4625473221082835e+01 0 0 0
1494 0 6 0.0000000000000000e+00 -6.0600000000000005e+00 -1.0100000000000000e+01 -4.4625473221082835e+01 0 0 0
1530 0 6 0.0000000000000000e+00 -1.0100000000000000e+01 -6.0600000000000005e+00 -4.4625473221082835e+01 0 0 0
1533 0 6 0.0000000000000000e+00 -8.0800000000000001e+00 -8.0800000000000001e+00 -4.4625473221082835e+01 0 0 0
1534 0 6 0.0000000000000000e+00 -6.0600000000000005e+00 -6.0600000000000005e+00 -4.4625473221082835e+01 0 0 0
1098 0 6 0.0000000000000000e+00 -2.0200000000000000e+00 -1.0100000000000000e+01 -4.8665473221082841e+01 0 0 0
1100 0 6 0.0000000000000000e+00 -4.0400000000000000e+00 -1.0100000000000000e+01 -4.6645473221082831e+01 0 0 0
1102 0 6 0.0000000000000000e+00 2.0200000000000000e+00 -1.0100000000000000e+01 -4.8665473221082841e+01 0 0 0
1104 0 6 0.0000000000000000e+00 0.0000000000000000e+00 -1.0100000000000000e+01 -4.6645473221082831e+01 0 0 0
1137 0 6 0.0000000000000000e+00 -4.0400000000000000e+00 -8.0800000000000001e+00 -4.8665473221082841e+01 0 0 0
1138 0 6 0.0000000000000000e+00 -2.0200000000000000e+00 -6.0600000000000005e+00 -4.8665473221082841e+01 0 0 0
1139 0 6 0.0000000000000000e+00 -2.0200000000000000e+00 -8.0800000000000001e+00 -4.6645473221082831e+01 0 0 0
1140 0 6 0.0000000000000000e+00 -4.0400000000000000e+00 -6.0600000000000005e+00 -4.6645473221082831e+01 0 0 0
1141 0 6 0.0000000000000000e+00 0.0000000000000000e+00 -8.0800000000000001e+00 -4.8665473221082841e+01 0 0 0
1142 0 6 0.0000000000000000e+00 2.0200000000000000e+00 -6.0600000000000005e+00 -4.8665473221082841e+01 0 0 0
1143 0 6 0.0000000000000000e+00 2.0200000000000000e+00 -8.0800000000000001e+00 -4.6645473221082831e+01 0 0 0
1144 0 6 0.0000000000000000e+00 0.0000000000000000e+00 -6.0600000000000005e+00 -4.6645473221082831e+01 0 0 0
1498 0 6 0.0000000000000000e+00 -2.0200000000000000e+00 -1.0100000000000000e+01 -4.4625473221082835e+01 0 0 0
1502 0 6 0.0000000000000000e+00 2.0200000000000000e+00 -1.0100000000000000e+01 -4.4625473221082835e+01 0 0 0
1537 0 6 0.0000000000000000e+00 -4.0400000000000000e+00 -8.0800000000000001e+00 -4.4625473221082835e+01 0 0 0
1538 0 6 0.0000000000000000e+00 -2.0200000000000000e+00 -6.0600000000000005e+00 -4.4625473221082835e+01 0 0 0
1541 0 6 0.0000000000000000e+00 0.0000000000000000e+00 -8.0800000000000001e+00 -4.4625473221082835e+01 0 0 0
1542 0 6 0.0000000000000000e+00 2.0200000000000000e+00 -6.0600000000000005e+00 -4.4625473221082835e+01 0 0 0
1106 0 6 0.0000000000000000e+00 6.0600000000000005e+00 -1.0100000000000000e+01 -4.8665473221082841e+01 0 0 0
1108 0 6 0.0000000000000000e+00 4.0400000000000000e+00 -1.0100000000000000e+01 -4.6645473221082831e+01 0 0 0
1110 0 6 0.0000000000000000e+00 1.0100000000000000e+01 -1.0100000000000000e+01 -4.8665473221082841e+01 0 0 0
1112 0 6 0.0000000000000000e+00 8.0800000000000001e+00 -1.0100000000000000e+01 -4.6645473221082831e+01 0 0 0
1145 0 6 0.0000000000000000e+00 4.0400000000000000e+00 -8.0800000000000001e+00 -4.8665473221082841e+01 0 0 0
1146 0 6 0.0000000000000000e+00 6.0600000000000005e+00 -6.0600000000000005e+00 -4.8665473221082841e+01 0 0 0
1147 0 6 0.0000000000000000e+00 6.0600000000000005e+00 -8.0800000000000001e+00 -4.6645473221082831e+01 0 0 0
1148 0 6 0.0000000000000000e+00 4.0400000000000000e+00 -6.0600000000000005e+00 -4.6645473221082831e+01 0 0 0
1149 0 6 0.0000000000000000e+00 8.0800000000000001e+00 -8.0800000000000001e+00 -4.8665473221082841e+01 0 0 0
1150 0 6 0.0000000000000000e+00 1.0100000000000000e+01 -6.0600000000000005e+00 -4.8665473221082841e+01 0 0 0
1151 0 6 0.0000000000000000e+00 1.0100000000000000e+01 -8.0800000000000001e+00 -4.6645473221082831e+01 0 0 0
1152 0 6 0.0000000000000000e+00 8.0800000000000001e+00 -6.0600000000000005e+00 -4.6645473221082831e+01 0 0 0
1506 0 6 0.0000000000000000e+00 6.0600000000000005e+00 -1.0100000000000000e+01 -4.4625473221082835e+01 0 0 0
1510 0 6 0.0000000000000000e+00 1.0100000000000000e+01 -1.0100000000000000e+01 -4.4625473221082835e+01 0 0 0
1545 0 6 0.0000000000000000e+00 4.0400000000000000e+00 -8.0800000000000001e+00 -4.4625473221082835e+01 0 0 0
1546 0 6 0.0000000000000000e+00 6.0600000000000005e+00 -6.0600000000000005e+00 -4.4625473221082835e+01 0 0 0
1549 0 6 0.0000000000000000e+00 8.0800000000000001e+00 -8.0800000000000001e+00 -4.4625473221082835e+01 0 0 0
1550 0 6 0.0000000000000000e+00 1.0100000000000000e+01 -6.0600000000000005e+00 -4.4625473221082835e+01 0 0 0
1114 0 6 0.0000000000000000e+00 1.4140000000000001e+01 -1.0100000000000000e+01 -4.8665473221082841e+01 0 0 0
1116 0 6 0.0000000000000000e+00 1.2120000000000001e+01 -1.0100000000000000e+01 -4.6645473221082831e+01 0 0 0
1118 0 6 0.0000000000000000e+00 1.8180000000000000e+01 -1.0100000000000000e+01 -4.8665473221082841e+01 0 0 0
1120 0 6 0.0000000000000000e+00 1.6160000000000000e+01 -1.0100000000000000e+01 -4.6645473221082831e+01 0 0 0
1153 0 6 0.0000000000000000e+00 1.2120000000000001e+01 -8.0800000000000001e+00 -4.8665473221082841e+01 0 0 0
1154 0 6 0.0000000000000000e+00 1.4140000000000001e+01 -6.0600000000000005e+00 -4.8665473221082841e+01 0 0 0
1155 0 6 0.0000000000000000e+00 1.4140000000000001e+01 -8.0800000000000001e+00 -4.6645473221082831e+01 0 0 0
1156 0 6 0.0000000000000000e+00 1.2120000000000001e+01 -6.0600000000000005e+00 -4.6645473221082831e+01 0 0 0
1157 0 6 0.0000000000000000e+00 1.6160000000000000e+01 -8.0800000000000001e+00 -4.8665473221082841e+01 0 0 0
1158 0 6 0.0000000000000000e+00 1.8180000000000000e+01 -6.0600000000000005e+00 -4.8665473221082841e+01 0 0 0
1159 0 6 0.0000000000000000e+00 1.8180000000000000e+01 -8.0800000000000001e+00 -4.6645473221082831e+01 0 0 0
1160 0 6 0.0000000000000000e+00 1.6160000000000000e+01 -6.0600000000000005e+00 -4.6645473221082831e+01 0 0 0
1514 0 6 0.0000000000000000e+00 1.4140000000000001e+01 -1.0100000000000000e+01 -4.4625473221082835e+01 0 0 0
1518 0 6 0.0000000000000000e+00 1.8180000000000000e+01 -1.0100000000000000e+01 -4.4625473221082835e+01 0 0 0
1553 0 6 0.0000000000000000e+00 1.2120000000000001e+01 -8.0800000000000001e+00 -4.4625473221082835e+01 0 0 0
1554 0 6 0.0000000000000000e+00 1.4140000000000001e+01 -6.0600000000000005e+00 -4.4625473221082835e+01 0 0 0
1557 0 6 0.0000000000000000e+00 1.6160000000000000e+01 -8.0800000000000001e+00 -4.4625473221082835e+01 0 0 0
1558 0 6 0.0000000000000000e+00 1.8180000000000000e+01 -6.0600000000000005e+00 -4.4625473221082835e+01 0 0 0
1161 0 6 0.0000000000000000e+00 -2.0199999999999999e+01 -4.0400000000000000e+00 -4.8665473221082841e+01 0 0 0
1162 0 6 0.0000000000000000e+00 -1.8180000000000000e+01 -2.0200000000000000e+00 -4.8665473221082841e+01 0 0 0
1163 0 6 0.0000000000000000e+00 -1.8180000000000000e+01 -4.0400000000000000e+00 -4.6645473221082831e+01 0 0 0
1164 0 6 0.0000000000000000e+00 -2.0199999999999999e+01 -2.0200000000000000e+00 -4.6645473221082831e+01 0 0 0
1165 0 6 0.0000000000000000e+00 -1.6160000000000000e+01 -4.0400000000000000e+00 -4.8665473221082841e+01 0 0 0
1166 0 6 0.0000000000000000e+00 -1.4140000000000001e+01 -2.0200000000000000e+00 -4.8665473221082841e+01 0 0 0
1167 0 6 0.0000000000000000e+00 -1.4140000000000001e+01 -4.0400000000000000e+00 -4.6645473221082831e+01 0 0 0
1168 0 6 0.0000000000000000e+00 -1.6160000000000000e+01 -2.0200000000000000e+00 -4.6645473221082831e+01 0 0 0
1169 0 6 0.0000000000000000e+00 -1.2120000000000001e+01 -4.0400000000000000e+00 -4.8665473221082841e+01 0 0 0
1172 0 6 0.0000000000000000e+00 -1.2120000000000001e+01 -2.0200000000000000e+00 -4.6645473221082831e+01 0 0 0
1201 0 6 0.0000000000000000e+00 -2.0199999999999999e+01 0.0000000000000000e+00 -4.8665473221082841e+01 0 0 0
1202 0 6 0.0000000000000000e+00 -1.8180000000000000e+01 2.0200000000000000e+00 -4.8665473221082841e+01 0 0 0
1203 0 6 0.0000000000000000e+00 -1.8180000000000000e+01 0.0000000000000000e+00 -4.6645473221082831e+01 0 0 0
1204 0 6 0.0000000000000000e+00 -2.0199999999999999e+01 2.0200000000000000e+00 -4.6645473221082831e+01 0 0 0
1205 0 6 0.0000000000000000e+00 -1.6160000000000000e+01 0.0000000000000000e+00 -4.8665473221082841e+01 0 0 0
1206 0 6 0.0000000000000000e+00 -1.4140000000000001e+01 2.0200000000000000e+00 -4.8665473221082841e+01 0 0 0
1207 0 6 0.0000000000000000e+00 -1.4140000000000001e+01 0.0000000000000000e+00 -4.6645473221082831e+01 0 0 0
1208 0 6 0.0000000000000000e+00 -1.6160000000000000e+01 2.0200000000000000e+00 -4.6645473221082831e+01 0 0 0
1209 0 6 0.0000000000000000e+00 -1.2120000000000001e+01 0.0000000000000000e+00 -4.8665473221082841e+01 0 0 0
1212 0 6 0.0000000000000000e+00 -1.2120000000000001e+01 2.0200000000000000e+00 -4.6645473221082831e+01 0 0 0
1561 0 6 0.0000000000000000e+00 -2.0199999999999999e+01 -4.0400000000000000e+00 -4.4625473221082835e+01 0 0 0
1562 0 6 0.0000000000000000e+00 -1.8180000000000000e+01 -2.0200000000000000e+00 -4.4625473221082835e+01 0 0 0
1565 0 6 0.0000000000000000e+00 -1.6160000000000000e+01 -4.0400000000000000e+00 -4.4625473221082835e+01 0 0 0
1566 0 6 0.0000000000000000e+00 -1.4140000000000001e+01 -2.0200000000000000e+00 -4.4625473221082835e+01 0 0 0
1569 0 6 0.0000000000000000e+00 -1.2120000000000001e+01 -4.0400000000000000e+00 -4.4625473221082835e+01 0 0 0
1601 0 6 0.0000000000000000e+00 -2.0199999999999999e+01 0.0000000000000000e+00 -4.4625473221082835e+01 0 0 0
1602 0 6 0.0000000000000000e+00 -1.8180000000000000e+01 2.0200000000000000e+00 -4.4625473221082835e+01 0 0 0
1605 0 6 0.0000000000000000e+00 -1.6160000000000000e+01 0.0000000000000000e+00 -4.4625473221082835e+01 0 0 0