LAMMPS data file via write_data, version 29 Sep 2021, timestep = 50000

7780 atoms
6 atom types
3800 bonds
1 bond types
1900 angles
1 angle types

-20.2 20.2 xlo xhi
-20.2 20.2 ylo yhi
-52.52 52.52 zlo zhi

Masses

1 15.9994
2 1.008
3 28.99
4 35.453
5 26.9815
6 26.9815

Pair Coeffs # lj/cut/tip4p/long

1 0.185199 3.1589
2 0 0
3 0.0469 2.4299
4 0.15 4.0447
5 11.697 2.574
6 11.697 2.574

Bond Coeffs # harmonic

1 0 0.9572

Angle Coeffs # harmonic

1 0 104.52

Atoms # full

1403 0 6 0 -18.18 -20.2 -19.841620434586854 0 0 0
1404 0 6 0 -20.2 -18.18 -19.841620434586854 0 0 0
1407 0 6 0 -14.14 -20.2 -19.841620434586854 0 0 0
1408 0 6 0 -16.16 -18.18 -19.841620434586854 0 0 0
1412 0 6 0 -12.120000000000001 -18.18 -19.841620434586854 0 0 0
1443 0 6 0 -18.18 -16.16 -19.841620434586854 0 0 0
1444 0 6 0 -20.2 -14.14 -19.841620434586854 0 0 0
1447 0 6 0 -14.14 -16.16 -19.841620434586854 0 0 0
1448 0 6 0 -16.16 -14.14 -19.841620434586854 0 0 0
1452 0 6 0 -12.120000000000001 -14.14 -19.841620434586854 0 0 0
1483 0 6 0 -18.18 -12.120000000000001 -19.841620434586854 0 0 0
1487 0 6 0 -14.14 -12.120000000000001 -19.841620434586854 0 0 0
1401 0 6 0 -20.2 -20.2 -21.861620434586793 0 0 0
1402 0 6 0 -18.18 -18.18 -21.861620434586793 0 0 0
1405 0 6 0 -16.16 -20.2 -21.861620434586793 0 0 0
1406 0 6 0 -14.14 -18.18 -21.861620434586793 0 0 0
1409 0 6 0 -12.120000000000001 -20.2 -21.861620434586793 0 0 0
1441 0 6 0 -20.2 -16.16 -21.861620434586793 0 0 0
1442 0 6 0 -18.18 -14.14 -21.861620434586793 0 0 0
1445 0 6 0 -16.16 -16.16 -21.861620434586793 0 0 0
1446 0 6 0 -14.14 -14.14 -21.861620434586793 0 0 0
1449 0 6 0 -12.120000000000001 -16.16 -21.861620434586793 0 0 0
1481 0 6 0 -20.2 -12.120000000000001 -21.861620434586793 0 0 0
1485 0 6 0 -16.16 -12.120000000000001 -21.861620434586793 0 0 0
1489 0 6 0 -12.120000000000001 -12.120000000000001 -21.861620434586793 0 0 0
1003 0 6 0 -18.18 -20.2 -23.88162043458684 0 0 0
1004 0 6 0 -20.2 -18.18 -23.88162043458684 0 0 0
1007 0 6 0 -14.14 -20.2 -23.88162043458684 0 0 0
1008 0 6 0 -16.16 -18.18 -23.88162043458684 0 0 0
1012 0 6 0 -12.120000000000001 -18.18 -23.88162043458684 0 0 0
1043 0 6 0 -18.18 -16.16 -23.88162043458684 0 0 0
1044 0 6 0 -20.2 -14.14 -23.88162043458684 0 0 0
1047 0 6 0 -14.14 -16.16 -23.88162043458684 0 0 0
1048 0 6 0 -16.16 -14.14 -23.88162043458684 0 0 0
1052 0 6 0 -12.120000000000001 -14.14 -23.88162043458684 0 0 0
1083 0 6 0 -18.18 -12.120000000000001 -23.88162043458684 0 0 0
1087 0 6 0 -14.14 -12.120000000000001 -23.88162043458684 0 0 0
1002 0 6 0 -18.18 -18.18 -25.90162043458678 0 0 0
1081 0 6 0 -20.2 -12.120000000000001 -25.90162043458678 0 0 0
1005 0 6 0 -16.16 -20.2 -25.90162043458678 0 0 0
1085 0 6 0 -16.16 -12.120000000000001 -25.90162043458678 0 0 0
1089 0 6 0 -12.120000000000001 -12.120000000000001 -25.90162043458678 0 0 0
1006 0 6 0 -14.14 -18.18 -25.90162043458678 0 0 0
1049 0 6 0 -12.120000000000001 -16.16 -25.90162043458678 0 0 0
1041 0 6 0 -20.2 -16.16 -25.90162043458678 0 0 0
1045 0 6 0 -16.16 -16.16 -25.90162043458678 0 0 0
1046 0 6 0 -14.14 -14.14 -25.90162043458678 0 0 0
1042 0 6 0 -18.18 -14.14 -25.90162043458678 0 0 0
1009 0 6 0 -12.120000000000001 -20.2 -25.90162043458678 0 0 0
1001 0 6 0 -20.2 -20.2 -25.90162043458678 0 0 0
1801 0 6 0 -20.2 -20.2 -17.82162043458671 0 0 0
1802 0 6 0 -18.18 -18.18 -17.82162043458671 0 0 0
1803 0 6 0 -16.16 -20.2 -17.82162043458671 0 0 0
1804 0 6 0 -14.14 -18.18 -17.82162043458671 0 0 0
1805 0 6 0 -12.120000000000001 -20.2 -17.82162043458671 0 0 0
1821 0 6 0 -20.2 -16.16 -17.82162043458671 0 0 0
1822 0 6 0 -18.18 -14.14 -17.82162043458671 0 0 0
1823 0 6 0 -16.16 -16.16 -17.82162043458671 0 0 0
1824 0 6 0 -14.14 -14.14 -17.82162043458671 0 0 0
1825 0 6 0 -12.120000000000001 -16.16 -17.82162043458671 0 0 0
1841 0 6 0 -20.2 -12.120000000000001 -17.82162043458671 0 0 0
1843 0 6 0 -16.16 -12.120000000000001 -17.82162043458671 0 0 0
1845 0 6 0 -12.120000000000001 -12.120000000000001 -17.82162043458671 0 0 0
1411 0 6 0 -10.1 -20.2 -19.841620434586854 0 0 0
1415 0 6 0 -6.0600000000000005 -20.2 -19.841620434586854 0 0 0
1416 0 6 0 -8.08 -18.18 -19.841620434586854 0 0 0
1451 0 6 0 -10.1 -16.16 -19.841620434586854 0 0 0
1455 0 6 0 -6.0600000000000005 -16.16 -19.841620434586854 0 0 0
1456 0 6 0 -8.08 -14.14 -19.841620434586854 0 0 0
1491 0 6 0 -10.1 -12.120000000000001 -19.841620434586854 0 0 0
1495 0 6 0 -6.0600000000000005 -12.120000000000001 -19.841620434586854 0 0 0
1410 0 6 0 -10.1 -18.18 -21.861620434586793 0 0 0
1413 0 6 0 -8.08 -20.2 -21.861620434586793 0 0 0
1414 0 6 0 -6.0600000000000005 -18.18 -21.861620434586793 0 0 0
1450 0 6 0 -10.1 -14.14 -21.861620434586793 0 0 0
1453 0 6 0 -8.08 -16.16 -21.861620434586793 0 0 0
1454 0 6 0 -6.0600000000000005 -14.14 -21.861620434586793 0 0 0
1493 0 6 0 -8.08 -12.120000000000001 -21.861620434586793 0 0 0
1011 0 6 0 -10.1 -20.2 -23.88162043458684 0 0 0
1015 0 6 0 -6.0600000000000005 -20.2 -23.88162043458684 0 0 0
1016 0 6 0 -8.08 -18.18 -23.88162043458684 0 0 0
1051 0 6 0 -10.1 -16.16 -23.88162043458684 0 0 0
1055 0 6 0 -6.0600000000000005 -16.16 -23.88162043458684 0 0 0
1056 0 6 0 -8.08 -14.14 -23.88162043458684 0 0 0
1091 0 6 0 -10.1 -12.120000000000001 -23.88162043458684 0 0 0
1095 0 6 0 -6.0600000000000005 -12.120000000000001 -23.88162043458684 0 0 0
1013 0 6 0 -8.08 -20.2 -25.90162043458678 0 0 0
1054 0 6 0 -6.0600000000000005 -14.14 -25.90162043458678 0 0 0
1093 0 6 0 -8.08 -12.120000000000001 -25.90162043458678 0 0 0
1014 0 6 0 -6.0600000000000005 -18.18 -25.90162043458678 0 0 0
1010 0 6 0 -10.1 -18.18 -25.90162043458678 0 0 0
1053 0 6 0 -8.08 -16.16 -25.90162043458678 0 0 0
1050 0 6 0 -10.1 -14.14 -25.90162043458678 0 0 0
1806 0 6 0 -10.1 -18.18 -17.82162043458671 0 0 0
1807 0 6 0 -8.08 -20.2 -17.82162043458671 0 0 0
1808 0 6 0 -6.0600000000000005 -18.18 -17.82162043458671 0 0 0
1826 0 6 0 -10.1 -14.14 -17.82162043458671 0 0 0
1827 0 6 0 -8.08 -16.16 -17.82162043458671 0 0 0
1828 0 6 0 -6.0600000000000005 -14.14 -17.82162043458671 0 0 0
1847 0 6 0 -8.08 -12.120000000000001 -17.82162043458671 0 0 0
1419 0 6 0 -2.02 -20.2 -19.841620434586854 0 0 0
1420 0 6 0 -4.04 -18.18 -19.841620434586854 0 0 0
1423 0 6 0 2.02 -20.2 -19.841620434586854 0 0 0
1424 0 6 0 0 -18.18 -19.841620434586854 0 0 0
1459 0 6 0 -2.02 -16.16 -19.841620434586854 0 0 0
1460 0 6 0 -4.04 -14.14 -19.841620434586854 0 0 0
1463 0 6 0 2.02 -16.16 -19.841620434586854 0 0 0
1464 0 6 0 0 -14.14 -19.841620434586854 0 0 0
1499 0 6 0 -2.02 -12.120000000000001 -19.841620434586854 0 0 0
1503 0 6 0 2.02 -12.120000000000001 -19.841620434586854 0 0 0
1417 0 6 0 -4.04 -20.2 -21.861620434586793 0 0 0
1418 0 6 0 -2.02 -18.18 -21.861620434586793 0 0 0
1421 0 6 0 0 -20.2 -21.861620434586793 0 0 0
1422 0 6 0 2.02 -18.18 -21.861620434586793 0 0 0
1457 0 6 0 -4.04 -16.16 -21.861620434586793 0 0 0
1458 0 6 0 -2.02 -14.14 -21.861620434586793 0 0 0
1461 0 6 0 0 -16.16 -21.861620434586793 0 0 0
1462 0 6 0 2.02 -14.14 -21.861620434586793 0 0 0
1497 0 6 0 -4.04 -12.120000000000001 -21.861620434586793 0 0 0
1501 0 6 0 0 -12.120000000000001 -21.861620434586793 0 0 0
1019 0 6 0 -2.02 -20.2 -23.88162043458684 0 0 0
1020 0 6 0 -4.04 -18.18 -23.88162043458684 0 0 0
1023 0 6 0 2.02 -20.2 -23.88162043458684 0 0 0
1024 0 6 0 0 -18.18 -23.88162043458684 0 0 0
1059 0 6 0 -2.02 -16.16 -23.88162043458684 0 0 0
1060 0 6 0 -4.04 -14.14 -23.88162043458684 0 0 0
1063 0 6 0 2.02 -16.16 -23.88162043458684 0 0 0
1064 0 6 0 0 -14.14 -23.88162043458684 0 0 0
1099 0 6 0 -2.02 -12.120000000000001 -23.88162043458684 0 0 0
1103 0 6 0 2.02 -12.120000000000001 -23.88162043458684 0 0 0
1017 0 6 0 -4.04 -20.2 -25.90162043458678 0 0 0
1018 0 6 0 -2.02 -18.18 -25.90162043458678 0 0 0
1021 0 6 0 0 -20.2 -25.90162043458678 0 0 0
1101 0 6 0 0 -12.120000000000001 -25.90162043458678 0 0 0
1097 0 6 0 -4.04 -12.120000000000001 -25.90162043458678 0 0 0
1062 0 6 0 2.02 -14.14 -25.90162043458678 0 0 0
1061 0 6 0 0 -16.16 -25.90162043458678 0 0 0
1058 0 6 0 -2.02 -14.14 -25.90162043458678 0 0 0
1057 0 6 0 -4.04 -16.16 -25.90162043458678 0 0 0
1022 0 6 0 2.02 -18.18 -25.90162043458678 0 0 0
1809 0 6 0 -4.04 -20.2 -17.82162043458671 0 0 0
1810 0 6 0 -2.02 -18.18 -17.82162043458671 0 0 0
1811 0 6 0 0 -20.2 -17.82162043458671 0 0 0
1812 0 6 0 2.02 -18.18 -17.82162043458671 0 0 0
1829 0 6 0 -4.04 -16.16 -17.82162043458671 0 0 0
1830 0 6 0 -2.02 -14.14 -17.82162043458671 0 0 0
1831 0 6 0 0 -16.16 -17.82162043458671 0 0 0
1832 0 6 0 2.02 -14.14 -17.82162043458671 0 0 0
1849 0 6 0 -4.04 -12.120000000000001 -17.82162043458671 0 0 0
1851 0 6 0 0 -12.120000000000001 -17.82162043458671 0 0 0
1427 0 6 0 6.0600000000000005 -20.2 -19.841620434586854 0 0 0
1428 0 6 0 4.04 -18.18 -19.841620434586854 0 0 0
1431 0 6 0 10.1 -20.2 -19.841620434586854 0 0 0
1432 0 6 0 8.08 -18.18 -19.841620434586854 0 0 0
1467 0 6 0 6.0600000000000005 -16.16 -19.841620434586854 0 0 0
1468 0 6 0 4.04 -14.14 -19.841620434586854 0 0 0
1471 0 6 0 10.1 -16.16 -19.841620434586854 0 0 0
1472 0 6 0 8.08 -14.14 -19.841620434586854 0 0 0
1507 0 6 0 6.0600000000000005 -12.120000000000001 -19.841620434586854 0 0 0
1511 0 6 0 10.1 -12.120000000000001 -19.841620434586854 0 0 0
1425 0 6 0 4.04 -20.2 -21.861620434586793 0 0 0
1426 0 6 0 6.0600000000000005 -18.18 -21.861620434586793 0 0 0
1429 0 6 0 8.08 -20.2 -21.861620434586793 0 0 0
1430 0 6 0 10.1 -18.18 -21.861620434586793 0 0 0
1465 0 6 0 4.04 -16.16 -21.861620434586793 0 0 0
1466 0 6 0 6.0600000000000005 -14.14 -21.861620434586793 0 0 0
1469 0 6 0 8.08 -16.16 -21.861620434586793 0 0 0
1470 0 6 0 10.1 -14.14 -21.861620434586793 0 0 0
1505 0 6 0 4.04 -12.120000000000001 -21.861620434586793 0 0 0
1509 0 6 0 8.08 -12.120000000000001 -21.861620434586793 0 0 0
1027 0 6 0 6.0600000000000005 -20.2 -23.88162043458684 0 0 0
1028 0 6 0 4.04 -18.18 -23.88162043458684 0 0 0
1031 0 6 0 10.1 -20.2 -23.88162043458684 0 0 0
1032 0 6 0 8.08 -18.18 -23.88162043458684 0 0 0
1067 0 6 0 6.0600000000000005 -16.16 -23.88162043458684 0 0 0
1068 0 6 0 4.04 -14.14 -23.88162043458684 0 0 0
1071 0 6 0 10.1 -16.16 -23.88162043458684 0 0 0
1072 0 6 0 8.08 -14.14 -23.88162043458684 0 0 0
1107 0 6 0 6.0600000000000005 -12.120000000000001 -23.88162043458684 0 0 0
1111 0 6 0 10.1 -12.120000000000001 -23.88162043458684 0 0 0
1109 0 6 0 8.08 -12.120000000000001 -25.90162043458678 0 0 0
1105 0 6 0 4.04 -12.120000000000001 -25.90162043458678 0 0 0
1070 0 6 0 10.1 -14.14 -25.90162043458678 0 0 0
1069 0 6 0 8.08 -16.16 -25.90162043458678 0 0 0
1066 0 6 0 6.0600000000000005 -14.14 -25.90162043458678 0 0 0
1065 0 6 0 4.04 -16.16 -25.90162043458678 0 0 0
1030 0 6 0 10.1 -18.18 -25.90162043458678 0 0 0
1029 0 6 0 8.08 -20.2 -25.90162043458678 0 0 0
1026 0 6 0 6.0600000000000005 -18.18 -25.90162043458678 0 0 0
1025 0 6 0 4.04 -20.2 -25.90162043458678 0 0 0
1813 0 6 0 4.04 -20.2 -17.82162043458671 0 0 0
1814 0 6 0 6.0600000000000005 -18.18 -17.82162043458671 0 0 0
1815 0 6 0 8.08 -20.2 -17.82162043458671 0 0 0
1816 0 6 0 10.1 -18.18 -17.82162043458671 0 0 0
1833 0 6 0 4.04 -16.16 -17.82162043458671 0 0 0
1834 0 6 0 6.0600000000000005 -14.14 -17.82162043458671 0 0 0
1835 0 6 0 8.08 -16.16 -17.82162043458671 0 0 0
1836 0 6 0 10.1 -14.14 -17.82162043458671 0 0 0
1853 0 6 0 4.04 -12.120000000000001 -17.82162043458671 0 0 0
1855 0 6 0 8.08 -12.120000000000001 -17.82162043458671 0 0 0
1435 0 6 0 14.14 -20.2 -19.841620434586854 0 0 0
1436 0 6 0 12.120000000000001 -18.18 -19.841620434586854 0 0 0
1439 0 6 0 18.18 -20.2 -19.841620434586854 0 0 0
1440 0 6 0 16.16 -18.18 -19.841620434586854 0 0 0
1475 0 6 0 14.14 -16.16 -19.841620434586854 0 0 0
1476 0 6 0 12.120000000000001 -14.14 -19.841620434586854 0 0 0
1479 0 6 0 18.18 -16.16 -19.841620434586854 0 0 0
1480 0 6 0 16.16 -14.14 -19.841620434586854 0 0 0
1515 0 6 0 14.14 -12.120000000000001 -19.841620434586854 0 0 0
1519 0 6 0 18.18 -12.120000000000001 -19.841620434586854 0 0 0
1433 0 6 0 12.120000000000001 -20.2 -21.861620434586793 0 0 0
1434 0 6 0 14.14 -18.18 -21.861620434586793 0 0 0
1437 0 6 0 16.16 -20.2 -21.861620434586793 0 0 0
1438 0 6 0 18.18 -18.18 -21.861620434586793 0 0 0
1473 0 6 0 12.120000000000001 -16.16 -21.861620434586793 0 0 0
1474 0 6 0 14.14 -14.14 -21.861620434586793 0 0 0
1477 0 6 0 16.16 -16.16 -21.861620434586793 0 0 0
1478 0 6 0 18.18 -14.14 -21.861620434586793 0 0 0
1513 0 6 0 12.120000000000001 -12.120000000000001 -21.861620434586793 0 0 0
1517 0 6 0 16.16 -12.120000000000001 -21.861620434586793 0 0 0
1035 0 6 0 14.14 -20.2 -23.88162043458684 0 0 0
1036 0 6 0 12.120000000000001 -18.18 -23.88162043458684 0 0 0
1039 0 6 0 18.18 -20.2 -23.88162043458684 0 0 0
1040 0 6 0 16.16 -18.18 -23.88162043458684 0 0 0
1075 0 6 0 14.14 -16.16 -23.88162043458684 0 0 0
1076 0 6 0 12.120000000000001 -14.14 -23.88162043458684 0 0 0
1079 0 6 0 18.18 -16.16 -23.88162043458684 0 0 0
1080 0 6 0 16.16 -14.14 -23.88162043458684 0 0 0
1115 0 6 0 14.14 -12.120000000000001 -23.88162043458684 0 0 0
1119 0 6 0 18.18 -12.120000000000001 -23.88162043458684 0 0 0
1117 0 6 0 16.16 -12.120000000000001 -25.90162043458678 0 0 0
1113 0 6 0 12.120000000000001 -12.120000000000001 -25.90162043458678 0 0 0
1078 0 6 0 18.18 -14.14 -25.90162043458678 0 0 0
1077 0 6 0 16.16 -16.16 -25.90162043458678 0 0 0
1074 0 6 0 14.14 -14.14 -25.90162043458678 0 0 0
1073 0 6 0 12.120000000000001 -16.16 -25.90162043458678 0 0 0
1038 0 6 0 18.18 -18.18 -25.90162043458678 0 0 0
1037 0 6 0 16.16 -20.2 -25.90162043458678 0 0 0
1034 0 6 0 14.14 -18.18 -25.90162043458678 0 0 0
1033 0 6 0 12.120000000000001 -20.2 -25.90162043458678 0 0 0
1817 0 6 0 12.120000000000001 -20.2 -17.82162043458671 0 0 0
1818 0 6 0 14.14 -18.18 -17.82162043458671 0 0 0
1819 0 6 0 16.16 -20.2 -17.82162043458671 0 0 0
1820 0 6 0 18.18 -18.18 -17.82162043458671 0 0 0
1837 0 6 0 12.120000000000001 -16.16 -17.82162043458671 0 0 0
1838 0 6 0 14.14 -14.14 -17.82162043458671 0 0 0
1839 0 6 0 16.16 -16.16 -17.82162043458671 0 0 0
1840 0 6 0 18.18 -14.14 -17.82162043458671 0 0 0
1857 0 6 0 12.120000000000001 -12.120000000000001 -17.82162043458671 0 0 0
1859 0 6 0 16.16 -12.120000000000001 -17.82162043458671 0 0 0
1484 0 6 0 -20.2 -10.1 -19.841620434586854 0 0 0
1488 0 6 0 -16.16 -10.1 -19.841620434586854 0 0 0
1492 0 6 0 -12.120000000000001 -10.1 -19.841620434586854 0 0 0
1523 0 6 0 -18.18 -8.08 -19.841620434586854 0 0 0
1524 0 6 0 -20.2 -6.0600000000000005 -19.841620434586854 0 0 0
1527 0 6 0 -14.14 -8.08 -19.841620434586854 0 0 0
1528 0 6 0 -16.16 -6.0600000000000005 -19.841620434586854 0 0 0
1532 0 6 0 -12.120000000000001 -6.0600000000000005 -19.841620434586854 0 0 0
1482 0 6 0 -18.18 -10.1 -21.861620434586793 0 0 0
1486 0 6 0 -14.14 -10.1 -21.861620434586793 0 0 0
1521 0 6 0 -20.2 -8.08 -21.861620434586793 0 0 0
1522 0 6 0 -18.18 -6.0600000000000005 -21.861620434586793 0 0 0
1525 0 6 0 -16.16 -8.08 -21.861620434586793 0 0 0
1526 0 6 0 -14.14 -6.0600000000000005 -21.861620434586793 0 0 0
1529 0 6 0 -12.120000000000001 -8.08 -21.861620434586793 0 0 0
1084 0 6 0 -20.2 -10.1 -23.88162043458684 0 0 0
1088 0 6 0 -16.16 -10.1 -23.88162043458684 0 0 0
1092 0 6 0 -12.120000000000001 -10.1 -23.88162043458684 0 0 0
1123 0 6 0 -18.18 -8.08 -23.88162043458684 0 0 0
1124 0 6 0 -20.2 -6.0600000000000005 -23.88162043458684 0 0 0
1127 0 6 0 -14.14 -8.08 -23.88162043458684 0 0 0
1128 0 6 0 -16.16 -6.0600000000000005 -23.88162043458684 0 0 0
1132 0 6 0 -12.120000000000001 -6.0600000000000005 -23.88162043458684 0 0 0
1129 0 6 0 -12.120000000000001 -8.08 -25.90162043458678 0 0 0
1126 0 6 0 -14.14 -6.0600000000000005 -25.90162043458678 0 0 0
1125 0 6 0 -16.16 -8.08 -25.90162043458678 0 0 0
1122 0 6 0 -18.18 -6.0600000000000005 -25.90162043458678 0 0 0
1121 0 6 0 -20.2 -8.08 -25.90162043458678 0 0 0
1086 0 6 0 -14.14 -10.1 -25.90162043458678 0 0 0
1082 0 6 0 -18.18 -10.1 -25.90162043458678 0 0 0
1842 0 6 0 -18.18 -10.1 -17.82162043458671 0 0 0
1844 0 6 0 -14.14 -10.1 -17.82162043458671 0 0 0
1861 0 6 0 -20.2 -8.08 -17.82162043458671 0 0 0
1862 0 6 0 -18.18 -6.0600000000000005 -17.82162043458671 0 0 0
1863 0 6 0 -16.16 -8.08 -17.82162043458671 0 0 0
1864 0 6 0 -14.14 -6.0600000000000005 -17.82162043458671 0 0 0
1865 0 6 0 -12.120000000000001 -8.08 -17.82162043458671 0 0 0
1496 0 6 0 -8.08 -10.1 -19.841620434586854 0 0 0
1531 0 6 0 -10.1 -8.08 -19.841620434586854 0 0 0
1535 0 6 0 -6.0600000000000005 -8.08 -19.841620434586854 0 0 0
1536 0 6 0 -8.08 -6.0600000000000005 -19.841620434586854 0 0 0
1490 0 6 0 -10.1 -10.1 -21.861620434586793 0 0 0
1494 0 6 0 -6.0600000000000005 -10.1 -21.861620434586793 0 0 0
1530 0 6 0 -10.1 -6.0600000000000005 -21.861620434586793 0 0 0
1533 0 6 0 -8.08 -8.08 -21.861620434586793 0 0 0
1534 0 6 0 -6.0600000000000005 -6.0600000000000005 -21.861620434586793 0 0 0
1096 0 6 0 -8.08 -10.1 -23.88162043458684 0 0 0
1131 0 6 0 -10.1 -8.08 -23.88162043458684 0 0 0
1135 0 6 0 -6.0600000000000005 -8.08 -23.88162043458684 0 0 0
1136 0 6 0 -8.08 -6.0600000000000005 -23.88162043458684 0 0 0
1134 0 6 0 -6.0600000000000005 -6.0600000000000005 -25.90162043458678 0 0 0
1133 0 6 0 -8.08 -8.08 -25.90162043458678 0 0 0
1130 0 6 0 -10.1 -6.0600000000000005 -25.90162043458678 0 0 0
1094 0 6 0 -6.0600000000000005 -10.1 -25.90162043458678 0 0 0
1090 0 6 0 -10.1 -10.1 -25.90162043458678 0 0 0
1846 0 6 0 -10.1 -10.1 -17.82162043458671 0 0 0
1848 0 6 0 -6.0600000000000005 -10.1 -17.82162043458671 0 0 0
1866 0 6 0 -10.1 -6.0600000000000005 -17.82162043458671 0 0 0
1867 0 6 0 -8.08 -8.08 -17.82162043458671 0 0 0
1868 0 6 0 -6.0600000000000005 -6.0600000000000005 -17.82162043458671 0 0 0
1500 0 6 0 -4.04 -10.1 -19.841620434586854 0 0 0
1504 0 6 0 0 -10.1 -19.841620434586854 0 0 0
1539 0 6 0 -2.02 -8.08 -19.841620434586854 0 0 0
1540 0 6 0 -4.04 -6.0600000000000005 -19.841620434586854 0 0 0
1543 0 6 0 2.02 -8.08 -19.841620434586854 0 0 0
1544 0 6 0 0 -6.0600000000000005 -19.841620434586854 0 0 0
1498 0 6 0 -2.02 -10.1 -21.861620434586793 0 0 0
1502 0 6 0 2.02 -10.1 -21.861620434586793 0 0 0
1537 0 6 0 -4.04 -8.08 -21.861620434586793 0 0 0
1538 0 6 0 -2.02 -6.0600000000000005 -21.861620434586793 0 0 0
1541 0 6 0 0 -8.08 -21.861620434586793 0 0 0
1542 0 6 0 2.02 -6.0600000000000005 -21.861620434586793 0 0 0
1100 0 6 0 -4.04 -10.1 -23.88162043458684 0 0 0
1104 0 6 0 0 -10.1 -23.88162043458684 0 0 0
1139 0 6 0 -2.02 -8.08 -23.88162043458684 0 0 0
1140 0 6 0 -4.04 -6.0600000000000005 -23.88162043458684 0 0 0
1143 0 6 0 2.02 -8.08 -23.88162043458684 0 0 0
1144 0 6 0 0 -6.0600000000000005 -23.88162043458684 0 0 0
1142 0 6 0 2.02 -6.0600000000000005 -25.90162043458678 0 0 0
1141 0 6 0 0 -8.08 -25.90162043458678 0 0 0
1138 0 6 0 -2.02 -6.0600000000000005 -25.90162043458678 0 0 0
1137 0 6 0 -4.04 -8.08 -25.90162043458678 0 0 0
1102 0 6 0 2.02 -10.1 -25.90162043458678 0 0 0
1098 0 6 0 -2.02 -10.1 -25.90162043458678 0 0 0
1850 0 6 0 -2.02 -10.1 -17.82162043458671 0 0 0
1852 0 6 0 2.02 -10.1 -17.82162043458671 0 0 0
1869 0 6 0 -4.04 -8.08 -17.82162043458671 0 0 0
1870 0 6 0 -2.02 -6.0600000000000005 -17.82162043458671 0 0 0
1871 0 6 0 0 -8.08 -17.82162043458671 0 0 0
1872 0 6 0 2.02 -6.0600000000000005 -17.82162043458671 0 0 0
1508 0 6 0 4.04 -10.1 -19.841620434586854 0 0 0
1512 0 6 0 8.08 -10.1 -19.841620434586854 0 0 0
1547 0 6 0 6.0600000000000005 -8.08 -19.841620434586854 0 0 0
1548 0 6 0 4.04 -6.0600000000000005 -19.841620434586854 0 0 0
1551 0 6 0 10.1 -8.08 -19.841620434586854 0 0 0
1552 0 6 0 8.08 -6.0600000000000005 -19.841620434586854 0 0 0
1506 0 6 0 6.0600000000000005 -10.1 -21.861620434586793 0 0 0
1510 0 6 0 10.1 -10.1 -21.861620434586793 0 0 0
1545 0 6 0 4.04 -8.08 -21.861620434586793 0 0 0
1546 0 6 0 6.0600000000000005 -6.0600000000000005 -21.861620434586793 0 0 0
1549 0 6 0 8.08 -8.08 -21.861620434586793 0 0 0
1550 0 6 0 10.1 -6.0600000000000005 -21.861620434586793 0 0 0
1108 0 6 0 4.04 -10.1 -23.88162043458684 0 0 0
1112 0 6 0 8.08 -10.1 -23.88162043458684 0 0 0
1147 0 6 0 6.0600000000000005 -8.08 -23.88162043458684 0 0 0
1148 0 6 0 4.04 -6.0600000000000005 -23.88162043458684 0 0 0
1151 0 6 0 10.1 -8.08 -23.88162043458684 0 0 0
1152 0 6 0 8.08 -6.0600000000000005 -23.88162043458684 0 0 0
1150 0 6 0 10.1 -6.0600000000000005 -25.90162043458678 0 0 0
1149 0 6 0 8.08 -8.08 -25.90162043458678 0 0 0
1146 0 6 0 6.0600000000000005 -6.0600000000000005 -25.90162043458678 0 0 0
1145 0 6 0 4.04 -8.08 -25.90162043458678 0 0 0
1110 0 6 0 10.1 -10.1 -25.90162043458678 0 0 0
1106 0 6 0 6.0600000000000005 -10.1 -25.90162043458678 0 0 0
1854 0 6 0 6.0600000000000005 -10.1 -17.82162043458671 0 0 0
1856 0 6 0 10.1 -10.1 -17.82162043458671 0 0 0
1873 0 6 0 4.04 -8.08 -17.82162043458671 0 0 0
1874 0 6 0 6.0600000000000005 -6.0600000000000005 -17.82162043458671 0 0 0
1875 0 6 0 8.08 -8.08 -17.82162043458671 0 0 0
1876 0 6 0 10.1 -6.0600000000000005 -17.82162043458671 0 0 0
1516 0 6 0 12.120000000000001 -10.1 -19.841620434586854 0 0 0
1520 0 6 0 16.16 -10.1 -19.841620434586854 0 0 0
1555 0 6 0 14.14 -8.08 -19.841620434586854 0 0 0
1556 0 6 0 12.120000000000001 -6.0600000000000005 -19.841620434586854 0 0 0
1559 0 6 0 18.18 -8.08 -19.841620434586854 0 0 0
1560 0 6 0 16.16 -6.0600000000000005 -19.841620434586854 0 0 0
1514 0 6 0 14.14 -10.1 -21.861620434586793 0 0 0
1518 0 6 0 18.18 -10.1 -21.861620434586793 0 0 0
1553 0 6 0 12.120000000000001 -8.08 -21.861620434586793 0 0 0
1554 0 6 0 14.14 -6.0600000000000005 -21.861620434586793 0 0 0
1557 0 6 0 16.16 -8.08 -21.861620434586793 0 0 0
1558 0 6 0 18.18 -6.0600000000000005 -21.861620434586793 0 0 0
1116 0 6 0 12.120000000000001 -10.1 -23.88162043458684 0 0 0
1120 0 6 0 16.16 -10.1 -23.88162043458684 0 0 0
1155 0 6 0 14.14 -8.08 -23.88162043458684 0 0 0
1156 0 6 0 12.120000000000001 -6.0600000000000005 -23.88162043458684 0 0 0
1159 0 6 0 18.18 -8.08 -23.88162043458684 0 0 0
1160 0 6 0 16.16 -6.0600000000000005 -23.88162043458684 0 0 0
1158 0 6 0 18.18 -6.0600000000000005 -25.90162043458678 0 0 0
1157 0 6 0 16.16 -8.08 -25.90162043458678 0 0 0
1154 0 6 0 14.14 -6.0600000000000005 -25.90162043458678 0 0 0
1153 0 6 0 12.120000000000001 -8.08 -25.90162043458678 0 0 0
1118 0 6 0 18.18 -10.1 -25.90162043458678 0 0 0
1114 0 6 0 14.14 -10.1 -25.90162043458678 0 0 0
1858 0 6 0 14.14 -10.1 -17.82162043458671 0 0 0
1860 0 6 0 18.18 -10.1 -17.82162043458671 0 0 0
1877 0 6 0 12.120000000000001 -8.08 -17.82162043458671 0 0 0
1878 0 6 0 14.14 -6.0600000000000005 -17.82162043458671 0 0 0
1879 0 6 0 16.16 -8.08 -17.82162043458671 0 0 0
1880 0 6 0 18.18 -6.0600000000000005 -17.82162043458671 0 0 0
1563 0 6 0 -18.18 -4.04 -19.841620434586854 0 0 0
1564 0 6 0 -20.2 -2.02 -19.841620434586854 0 0 0
1567 0 6 0 -14.14 -4.04 -19.841620434586854 0 0 0
1568 0 6 0 -16.16 -2.02 -19.841620434586854 0 0 0
1572 0 6 0 -12.120000000000001 -2.02 -19.841620434586854 0 0 0
1603 0 6 0 -18.18 0 -19.841620434586854 0 0 0
1604 0 6 0 -20.2 2.02 -19.841620434586854 0 0 0
1607 0 6 0 -14.14 0 -19.841620434586854 0 0 0
1608 0 6 0 -16.16 2.02 -19.841620434586854 0 0 0
1612 0 6 0 -12.120000000000001 2.02 -19.841620434586854 0 0 0
1561 0 6 0 -20.2 -4.04 -21.861620434586793 0 0 0
1562 0 6 0 -18.18 -2.02 -21.861620434586793 0 0 0
1565 0 6 0 -16.16 -4.04 -21.861620434586793 0 0 0
1566 0 6 0 -14.14 -2.02 -21.861620434586793 0 0 0
1569 0 6 0 -12.120000000000001 -4.04 -21.861620434586793 0 0 0
1601 0 6 0 -20.2 0 -21.861620434586793 0 0 0
1602 0 6 0 -18.18 2.02 -21.861620434586793 0 0 0
1605 0 6 0 -16.16 0 -21.861620434586793 0 0 0
1606 0 6 0 -14.14 2.02 -21.861620434586793 0 0 0
1609 0 6 0 -12.120000000000001 0 -21.861620434586793 0 0 0
1212 0 6 0 -12.120000000000001 2.02 -23.88162043458684 0 0 0
1163 0 6 0 -18.18 -4.04 -23.88162043458684 0 0 0
1164 0 6 0 -20.2 -2.02 -23.88162043458684 0 0 0
1167 0 6 0 -14.14 -4.04 -23.88162043458684 0 0 0
1168 0 6 0 -16.16 -2.02 -23.88162043458684 0 0 0
1172 0 6 0 -12.120000000000001 -2.02 -23.88162043458684 0 0 0
1203 0 6 0 -18.18 0 -23.88162043458684 0 0 0
1204 0 6 0 -20.2 2.02 -23.88162043458684 0 0 0
1207 0 6 0 -14.14 0 -23.88162043458684 0 0 0
1208 0 6 0 -16.16 2.02 -23.88162043458684 0 0 0
1209 0 6 0 -12.120000000000001 0 -25.90162043458678 0 0 0
1206 0 6 0 -14.14 2.02 -25.90162043458678 0 0 0
1205 0 6 0 -16.16 0 -25.90162043458678 0 0 0
1202 0 6 0 -18.18 2.02 -25.90162043458678 0 0 0
1201 0 6 0 -20.2 0 -25.90162043458678 0 0 0
1169 0 6 0 -12.120000000000001 -4.04 -25.90162043458678 0 0 0
1166 0 6 0 -14.14 -2.02 -25.90162043458678 0 0 0
1165 0 6 0 -16.16 -4.04 -25.90162043458678 0 0 0
1162 0 6 0 -18.18 -2.02 -25.90162043458678 0 0 0
1161 0 6 0 -20.2 -4.04 -25.90162043458678 0 0 0
1881 0 6 0 -20.2 -4.04 -17.82162043458671 0 0 0
1882 0 6 0 -18.18 -2.02 -17.82162043458671 0 0 0
1883 0 6 0 -16.16 -4.04 -17.82162043458671 0 0 0
1884 0 6 0 -14.14 -2.02 -17.82162043458671 0 0 0
1885 0 6 0 -12.120000000000001 -4.04 -17.82162043458671 0 0 0
1901 0 6 0 -20.2 0 -17.82162043458671 0 0 0
1902 0 6 0 -18.18 2.02 -17.82162043458671 0 0 0
1903 0 6 0 -16.16 0 -17.82162043458671 0 0 0
1904 0 6 0 -14.14 2.02 -17.82162043458671 0 0 0
1905 0 6 0 -12.120000000000001 0 -17.82162043458671 0 0 0
1571 0 6 0 -10.1 -4.04 -19.841620434586854 0 0 0
1575 0 6 0 -6.0600000000000005 -4.04 -19.841620434586854 0 0 0
1576 0 6 0 -8.08 -2.02 -19.841620434586854 0 0 0
1611 0 6 0 -10.1 0 -19.841620434586854 0 0 0
1615 0 6 0 -6.0600000000000005 0 -19.841620434586854 0 0 0
1616 0 6 0 -8.08 2.02 -19.841620434586854 0 0 0
1570 0 6 0 -10.1 -2.02 -21.861620434586793 0 0 0
1573 0 6 0 -8.08 -4.04 -21.861620434586793 0 0 0
1574 0 6 0 -6.0600000000000005 -2.02 -21.861620434586793 0 0 0
1610 0 6 0 -10.1 2.02 -21.861620434586793 0 0 0
1613 0 6 0 -8.08 0 -21.861620434586793 0 0 0
1614 0 6 0 -6.0600000000000005 2.02 -21.861620434586793 0 0 0
1171 0 6 0 -10.1 -4.04 -23.88162043458684 0 0 0
1216 0 6 0 -8.08 2.02 -23.88162043458684 0 0 0
1215 0 6 0 -6.0600000000000005 0 -23.88162043458684 0 0 0
1211 0 6 0 -10.1 0 -23.88162043458684 0 0 0
1176 0 6 0 -8.08 -2.02 -23.88162043458684 0 0 0
1175 0 6 0 -6.0600000000000005 -4.04 -23.88162043458684 0 0 0
1214 0 6 0 -6.0600000000000005 2.02 -25.90162043458678 0 0 0
1213 0 6 0 -8.08 0 -25.90162043458678 0 0 0
1210 0 6 0 -10.1 2.02 -25.90162043458678 0 0 0
1174 0 6 0 -6.0600000000000005 -2.02 -25.90162043458678 0 0 0
1173 0 6 0 -8.08 -4.04 -25.90162043458678 0 0 0
1170 0 6 0 -10.1 -2.02 -25.90162043458678 0 0 0
1886 0 6 0 -10.1 -2.02 -17.82162043458671 0 0 0
1887 0 6 0 -8.08 -4.04 -17.82162043458671 0 0 0
1888 0 6 0 -6.0600000000000005 -2.02 -17.82162043458671 0 0 0
1906 0 6 0 -10.1 2.02 -17.82162043458671 0 0 0
1907 0 6 0 -8.08 0 -17.82162043458671 0 0 0
1908 0 6 0 -6.0600000000000005 2.02 -17.82162043458671 0 0 0
1579 0 6 0 -2.02 -4.04 -19.841620434586854 0 0 0
1580 0 6 0 -4.04 -2.02 -19.841620434586854 0 0 0
1583 0 6 0 2.02 -4.04 -19.841620434586854 0 0 0
1584 0 6 0 0 -2.02 -19.841620434586854 0 0 0
1619 0 6 0 -2.02 0 -19.841620434586854 0 0 0
1620 0 6 0 -4.04 2.02 -19.841620434586854 0 0 0
1623 0 6 0 2.02 0 -19.841620434586854 0 0 0
1624 0 6 0 0 2.02 -19.841620434586854 0 0 0
1577 0 6 0 -4.04 -4.04 -21.861620434586793 0 0 0
1578 0 6 0 -2.02 -2.02 -21.861620434586793 0 0 0
1581 0 6 0 0 -4.04 -21.861620434586793 0 0 0
1582 0 6 0 2.02 -2.02 -21.861620434586793 0 0 0
1617 0 6 0 -4.04 0 -21.861620434586793 0 0 0
1618 0 6 0 -2.02 2.02 -21.861620434586793 0 0 0
1621 0 6 0 0 0 -21.861620434586793 0 0 0
1622 0 6 0 2.02 2.02 -21.861620434586793 0 0 0
1180 0 6 0 -4.04 -2.02 -23.88162043458684 0 0 0
1183 0 6 0 2.02 -4.04 -23.88162043458684 0 0 0
1184 0 6 0 0 -2.02 -23.88162043458684 0 0 0
1219 0 6 0 -2.02 0 -23.88162043458684 0 0 0
1220 0 6 0 -4.04 2.02 -23.88162043458684 0 0 0
1223 0 6 0 2.02 0 -23.88162043458684 0 0 0
1224 0 6 0 0 2.02 -23.88162043458684 0 0 0
1179 0 6 0 -2.02 -4.04 -23.88162043458684 0 0 0
1222 0 6 0 2.02 2.02 -25.90162043458678 0 0 0
1221 0 6 0 0 0 -25.90162043458678 0 0 0
1218 0 6 0 -2.02 2.02 -25.90162043458678 0 0 0
1217 0 6 0 -4.04 0 -25.90162043458678 0 0 0
1182 0 6 0 2.02 -2.02 -25.90162043458678 0 0 0
1181 0 6 0 0 -4.04 -25.90162043458678 0 0 0
1178 0 6 0 -2.02 -2.02 -25.90162043458678 0 0 0
1177 0 6 0 -4.04 -4.04 -25.90162043458678 0 0 0
1889 0 6 0 -4.04 -4.04 -17.82162043458671 0 0 0
1890 0 6 0 -2.02 -2.02 -17.82162043458671 0 0 0
1891 0 6 0 0 -4.04 -17.82162043458671 0 0 0
1892 0 6 0 2.02 -2.02 -17.82162043458671 0 0 0
1909 0 6 0 -4.04 0 -17.82162043458671 0 0 0
1910 0 6 0 -2.02 2.02 -17.82162043458671 0 0 0
1911 0 6 0 0 0 -17.82162043458671 0 0 0
1912 0 6 0 2.02 2.02 -17.82162043458671 0 0 0
1587 0 6 0 6.0600000000000005 -4.04 -19.841620434586854 0 0 0
1588 0 6 0 4.04 -2.02 -19.841620434586854 0 0 0
1591 0 6 0 10.1 -4.04 -19.841620434586854 0 0 0
1592 0 6 0 8.08 -2.02 -19.841620434586854 0 0 0
1627 0 6 0 6.0600000000000005 0 -19.841620434586854 0 0 0
1628 0 6 0 4.04 2.02 -19.841620434586854 0 0 0
1631 0 6 0 10.1 0 -19.841620434586854 0 0 0
1632 0 6 0 8.08 2.02 -19.841620434586854 0 0 0
1585 0 6 0 4.04 -4.04 -21.861620434586793 0 0 0
1586 0 6 0 6.0600000000000005 -2.02 -21.861620434586793 0 0 0
1589 0 6 0 8.08 -4.04 -21.861620434586793 0 0 0
1590 0 6 0 10.1 -2.02 -21.861620434586793 0 0 0
1625 0 6 0 4.04 0 -21.861620434586793 0 0 0
1626 0 6 0 6.0600000000000005 2.02 -21.861620434586793 0 0 0
1629 0 6 0 8.08 0 -21.861620434586793 0 0 0
1630 0 6 0 10.1 2.02 -21.861620434586793 0 0 0
1227 0 6 0 6.0600000000000005 0 -23.88162043458684 0 0 0
1187 0 6 0 6.0600000000000005 -4.04 -23.88162043458684 0 0 0
1228 0 6 0 4.04 2.02 -23.88162043458684 0 0 0
1191 0 6 0 10.1 -4.04 -23.88162043458684 0 0 0
1188 0 6 0 4.04 -2.02 -23.88162043458684 0 0 0
1231 0 6 0 10.1 0 -23.88162043458684 0 0 0
1192 0 6 0 8.08 -2.02 -23.88162043458684 0 0 0
1232 0 6 0 8.08 2.02 -23.88162043458684 0 0 0
1185 0 6 0 4.04 -4.04 -25.90162043458678 0 0 0
1186 0 6 0 6.0600000000000005 -2.02 -25.90162043458678 0 0 0
1189 0 6 0 8.08 -4.04 -25.90162043458678 0 0 0
1190 0 6 0 10.1 -2.02 -25.90162043458678 0 0 0
1225 0 6 0 4.04 0 -25.90162043458678 0 0 0
1226 0 6 0 6.0600000000000005 2.02 -25.90162043458678 0 0 0
1229 0 6 0 8.08 0 -25.90162043458678 0 0 0
1230 0 6 0 10.1 2.02 -25.90162043458678 0 0 0
1893 0 6 0 4.04 -4.04 -17.82162043458671 0 0 0
1894 0 6 0 6.0600000000000005 -2.02 -17.82162043458671 0 0 0