LAMMPS data file via write_data, version 29 Sep 2021, timestep = 50000

7760 atoms
6 atom types
3800 bonds
1 bond types
1900 angles
1 angle types

-20.2 20.2 xlo xhi
-20.2 20.2 ylo yhi
-52.52 52.52 zlo zhi

Masses

1 15.9994
2 1.008
3 28.99
4 35.453
5 26.9815
6 26.9815

Pair Coeffs # lj/cut/tip4p/long

1 0.185199 3.1589
2 0 0
3 0.0469 2.4299
4 0.15 4.0447
5 11.697 3.55
6 11.697 3.55

Bond Coeffs # harmonic

1 0 0.9572

Angle Coeffs # harmonic

1 0 104.52

Atoms # full

1089 0 6 0 -12.120000000000001 -12.120000000000001 -26.270567103719785 0 0 0
1049 0 6 0 -12.120000000000001 -16.16 -26.270567103719785 0 0 0
1041 0 6 0 -20.2 -16.16 -26.270567103719785 0 0 0
1046 0 6 0 -14.14 -14.14 -26.270567103719785 0 0 0
1045 0 6 0 -16.16 -16.16 -26.270567103719785 0 0 0
1005 0 6 0 -16.16 -20.2 -26.270567103719785 0 0 0
1042 0 6 0 -18.18 -14.14 -26.270567103719785 0 0 0
1002 0 6 0 -18.18 -18.18 -26.270567103719785 0 0 0
1001 0 6 0 -20.2 -20.2 -26.270567103719785 0 0 0
1081 0 6 0 -20.2 -12.120000000000001 -26.270567103719785 0 0 0
1006 0 6 0 -14.14 -18.18 -26.270567103719785 0 0 0
1085 0 6 0 -16.16 -12.120000000000001 -26.270567103719785 0 0 0
1009 0 6 0 -12.120000000000001 -20.2 -26.270567103719785 0 0 0
1093 0 6 0 -8.08 -12.120000000000001 -26.270567103719785 0 0 0
1053 0 6 0 -8.08 -16.16 -26.270567103719785 0 0 0
1013 0 6 0 -8.08 -20.2 -26.270567103719785 0 0 0
1050 0 6 0 -10.1 -14.14 -26.270567103719785 0 0 0
1010 0 6 0 -10.1 -18.18 -26.270567103719785 0 0 0
1054 0 6 0 -6.0600000000000005 -14.14 -26.270567103719785 0 0 0
1014 0 6 0 -6.0600000000000005 -18.18 -26.270567103719785 0 0 0
1017 0 6 0 -4.04 -20.2 -26.270567103719785 0 0 0
1022 0 6 0 2.02 -18.18 -26.270567103719785 0 0 0
1097 0 6 0 -4.04 -12.120000000000001 -26.270567103719785 0 0 0
1062 0 6 0 2.02 -14.14 -26.270567103719785 0 0 0
1101 0 6 0 0 -12.120000000000001 -26.270567103719785 0 0 0
1057 0 6 0 -4.04 -16.16 -26.270567103719785 0 0 0
1058 0 6 0 -2.02 -14.14 -26.270567103719785 0 0 0
1021 0 6 0 0 -20.2 -26.270567103719785 0 0 0
1018 0 6 0 -2.02 -18.18 -26.270567103719785 0 0 0
1061 0 6 0 0 -16.16 -26.270567103719785 0 0 0
1070 0 6 0 10.1 -14.14 -26.270567103719785 0 0 0
1029 0 6 0 8.08 -20.2 -26.270567103719785 0 0 0
1069 0 6 0 8.08 -16.16 -26.270567103719785 0 0 0
1066 0 6 0 6.0600000000000005 -14.14 -26.270567103719785 0 0 0
1026 0 6 0 6.0600000000000005 -18.18 -26.270567103719785 0 0 0
1065 0 6 0 4.04 -16.16 -26.270567103719785 0 0 0
1025 0 6 0 4.04 -20.2 -26.270567103719785 0 0 0
1109 0 6 0 8.08 -12.120000000000001 -26.270567103719785 0 0 0
1105 0 6 0 4.04 -12.120000000000001 -26.270567103719785 0 0 0
1030 0 6 0 10.1 -18.18 -26.270567103719785 0 0 0
1034 0 6 0 14.14 -18.18 -26.270567103719785 0 0 0
1033 0 6 0 12.120000000000001 -20.2 -26.270567103719785 0 0 0
1073 0 6 0 12.120000000000001 -16.16 -26.270567103719785 0 0 0
1038 0 6 0 18.18 -18.18 -26.270567103719785 0 0 0
1037 0 6 0 16.16 -20.2 -26.270567103719785 0 0 0
1117 0 6 0 16.16 -12.120000000000001 -26.270567103719785 0 0 0
1113 0 6 0 12.120000000000001 -12.120000000000001 -26.270567103719785 0 0 0
1078 0 6 0 18.18 -14.14 -26.270567103719785 0 0 0
1077 0 6 0 16.16 -16.16 -26.270567103719785 0 0 0
1074 0 6 0 14.14 -14.14 -26.270567103719785 0 0 0
1126 0 6 0 -14.14 -6.0600000000000005 -26.270567103719785 0 0 0
1129 0 6 0 -12.120000000000001 -8.08 -26.270567103719785 0 0 0
1122 0 6 0 -18.18 -6.0600000000000005 -26.270567103719785 0 0 0
1121 0 6 0 -20.2 -8.08 -26.270567103719785 0 0 0
1086 0 6 0 -14.14 -10.1 -26.270567103719785 0 0 0
1125 0 6 0 -16.16 -8.08 -26.270567103719785 0 0 0
1082 0 6 0 -18.18 -10.1 -26.270567103719785 0 0 0
1090 0 6 0 -10.1 -10.1 -26.270567103719785 0 0 0
1094 0 6 0 -6.0600000000000005 -10.1 -26.270567103719785 0 0 0
1130 0 6 0 -10.1 -6.0600000000000005 -26.270567103719785 0 0 0
1133 0 6 0 -8.08 -8.08 -26.270567103719785 0 0 0
1134 0 6 0 -6.0600000000000005 -6.0600000000000005 -26.270567103719785 0 0 0
1098 0 6 0 -2.02 -10.1 -26.270567103719785 0 0 0
1102 0 6 0 2.02 -10.1 -26.270567103719785 0 0 0
1137 0 6 0 -4.04 -8.08 -26.270567103719785 0 0 0
1138 0 6 0 -2.02 -6.0600000000000005 -26.270567103719785 0 0 0
1141 0 6 0 0 -8.08 -26.270567103719785 0 0 0
1142 0 6 0 2.02 -6.0600000000000005 -26.270567103719785 0 0 0
1106 0 6 0 6.0600000000000005 -10.1 -26.270567103719785 0 0 0
1110 0 6 0 10.1 -10.1 -26.270567103719785 0 0 0
1145 0 6 0 4.04 -8.08 -26.270567103719785 0 0 0
1146 0 6 0 6.0600000000000005 -6.0600000000000005 -26.270567103719785 0 0 0
1149 0 6 0 8.08 -8.08 -26.270567103719785 0 0 0
1150 0 6 0 10.1 -6.0600000000000005 -26.270567103719785 0 0 0
1114 0 6 0 14.14 -10.1 -26.270567103719785 0 0 0
1118 0 6 0 18.18 -10.1 -26.270567103719785 0 0 0
1153 0 6 0 12.120000000000001 -8.08 -26.270567103719785 0 0 0
1154 0 6 0 14.14 -6.0600000000000005 -26.270567103719785 0 0 0
1157 0 6 0 16.16 -8.08 -26.270567103719785 0 0 0
1158 0 6 0 18.18 -6.0600000000000005 -26.270567103719785 0 0 0
1161 0 6 0 -20.2 -4.04 -26.270567103719785 0 0 0
1162 0 6 0 -18.18 -2.02 -26.270567103719785 0 0 0
1165 0 6 0 -16.16 -4.04 -26.270567103719785 0 0 0
1166 0 6 0 -14.14 -2.02 -26.270567103719785 0 0 0
1169 0 6 0 -12.120000000000001 -4.04 -26.270567103719785 0 0 0
1201 0 6 0 -20.2 0 -26.270567103719785 0 0 0
1202 0 6 0 -18.18 2.02 -26.270567103719785 0 0 0
1205 0 6 0 -16.16 0 -26.270567103719785 0 0 0
1206 0 6 0 -14.14 2.02 -26.270567103719785 0 0 0
1209 0 6 0 -12.120000000000001 0 -26.270567103719785 0 0 0
1170 0 6 0 -10.1 -2.02 -26.270567103719785 0 0 0
1173 0 6 0 -8.08 -4.04 -26.270567103719785 0 0 0
1174 0 6 0 -6.0600000000000005 -2.02 -26.270567103719785 0 0 0
1210 0 6 0 -10.1 2.02 -26.270567103719785 0 0 0
1213 0 6 0 -8.08 0 -26.270567103719785 0 0 0
1214 0 6 0 -6.0600000000000005 2.02 -26.270567103719785 0 0 0
1177 0 6 0 -4.04 -4.04 -26.270567103719785 0 0 0
1178 0 6 0 -2.02 -2.02 -26.270567103719785 0 0 0
1181 0 6 0 0 -4.04 -26.270567103719785 0 0 0
1182 0 6 0 2.02 -2.02 -26.270567103719785 0 0 0
1217 0 6 0 -4.04 0 -26.270567103719785 0 0 0
1218 0 6 0 -2.02 2.02 -26.270567103719785 0 0 0
1221 0 6 0 0 0 -26.270567103719785 0 0 0
1222 0 6 0 2.02 2.02 -26.270567103719785 0 0 0
1230 0 6 0 10.1 2.02 -26.270567103719785 0 0 0
1229 0 6 0 8.08 0 -26.270567103719785 0 0 0
1226 0 6 0 6.0600000000000005 2.02 -26.270567103719785 0 0 0
1225 0 6 0 4.04 0 -26.270567103719785 0 0 0
1190 0 6 0 10.1 -2.02 -26.270567103719785 0 0 0
1189 0 6 0 8.08 -4.04 -26.270567103719785 0 0 0
1186 0 6 0 6.0600000000000005 -2.02 -26.270567103719785 0 0 0
1185 0 6 0 4.04 -4.04 -26.270567103719785 0 0 0
1238 0 6 0 18.18 2.02 -26.270567103719785 0 0 0
1237 0 6 0 16.16 0 -26.270567103719785 0 0 0
1234 0 6 0 14.14 2.02 -26.270567103719785 0 0 0
1233 0 6 0 12.120000000000001 0 -26.270567103719785 0 0 0
1198 0 6 0 18.18 -2.02 -26.270567103719785 0 0 0
1197 0 6 0 16.16 -4.04 -26.270567103719785 0 0 0
1194 0 6 0 14.14 -2.02 -26.270567103719785 0 0 0
1193 0 6 0 12.120000000000001 -4.04 -26.270567103719785 0 0 0
1289 0 6 0 -12.120000000000001 8.08 -26.270567103719785 0 0 0
1286 0 6 0 -14.14 10.1 -26.270567103719785 0 0 0
1285 0 6 0 -16.16 8.08 -26.270567103719785 0 0 0
1282 0 6 0 -18.18 10.1 -26.270567103719785 0 0 0
1281 0 6 0 -20.2 8.08 -26.270567103719785 0 0 0
1249 0 6 0 -12.120000000000001 4.04 -26.270567103719785 0 0 0
1246 0 6 0 -14.14 6.0600000000000005 -26.270567103719785 0 0 0
1245 0 6 0 -16.16 4.04 -26.270567103719785 0 0 0
1242 0 6 0 -18.18 6.0600000000000005 -26.270567103719785 0 0 0
1241 0 6 0 -20.2 4.04 -26.270567103719785 0 0 0
1294 0 6 0 -6.0600000000000005 10.1 -26.270567103719785 0 0 0
1293 0 6 0 -8.08 8.08 -26.270567103719785 0 0 0
1290 0 6 0 -10.1 10.1 -26.270567103719785 0 0 0
1254 0 6 0 -6.0600000000000005 6.0600000000000005 -26.270567103719785 0 0 0
1253 0 6 0 -8.08 4.04 -26.270567103719785 0 0 0
1250 0 6 0 -10.1 6.0600000000000005 -26.270567103719785 0 0 0
1257 0 6 0 -4.04 4.04 -26.270567103719785 0 0 0
1258 0 6 0 -2.02 6.0600000000000005 -26.270567103719785 0 0 0
1261 0 6 0 0 4.04 -26.270567103719785 0 0 0
1262 0 6 0 2.02 6.0600000000000005 -26.270567103719785 0 0 0
1297 0 6 0 -4.04 8.08 -26.270567103719785 0 0 0
1298 0 6 0 -2.02 10.1 -26.270567103719785 0 0 0
1301 0 6 0 0 8.08 -26.270567103719785 0 0 0
1302 0 6 0 2.02 10.1 -26.270567103719785 0 0 0
1265 0 6 0 4.04 4.04 -26.270567103719785 0 0 0
1266 0 6 0 6.0600000000000005 6.0600000000000005 -26.270567103719785 0 0 0
1269 0 6 0 8.08 4.04 -26.270567103719785 0 0 0
1270 0 6 0 10.1 6.0600000000000005 -26.270567103719785 0 0 0
1305 0 6 0 4.04 8.08 -26.270567103719785 0 0 0
1306 0 6 0 6.0600000000000005 10.1 -26.270567103719785 0 0 0
1309 0 6 0 8.08 8.08 -26.270567103719785 0 0 0
1310 0 6 0 10.1 10.1 -26.270567103719785 0 0 0
1318 0 6 0 18.18 10.1 -26.270567103719785 0 0 0
1317 0 6 0 16.16 8.08 -26.270567103719785 0 0 0
1314 0 6 0 14.14 10.1 -26.270567103719785 0 0 0
1313 0 6 0 12.120000000000001 8.08 -26.270567103719785 0 0 0
1278 0 6 0 18.18 6.0600000000000005 -26.270567103719785 0 0 0
1277 0 6 0 16.16 4.04 -26.270567103719785 0 0 0
1274 0 6 0 14.14 6.0600000000000005 -26.270567103719785 0 0 0
1273 0 6 0 12.120000000000001 4.04 -26.270567103719785 0 0 0
1369 0 6 0 -12.120000000000001 16.16 -26.270567103719785 0 0 0
1366 0 6 0 -14.14 18.18 -26.270567103719785 0 0 0
1365 0 6 0 -16.16 16.16 -26.270567103719785 0 0 0
1362 0 6 0 -18.18 18.18 -26.270567103719785 0 0 0
1361 0 6 0 -20.2 16.16 -26.270567103719785 0 0 0
1329 0 6 0 -12.120000000000001 12.120000000000001 -26.270567103719785 0 0 0
1326 0 6 0 -14.14 14.14 -26.270567103719785 0 0 0
1325 0 6 0 -16.16 12.120000000000001 -26.270567103719785 0 0 0
1322 0 6 0 -18.18 14.14 -26.270567103719785 0 0 0
1321 0 6 0 -20.2 12.120000000000001 -26.270567103719785 0 0 0
1374 0 6 0 -6.0600000000000005 18.18 -26.270567103719785 0 0 0
1373 0 6 0 -8.08 16.16 -26.270567103719785 0 0 0
1370 0 6 0 -10.1 18.18 -26.270567103719785 0 0 0
1334 0 6 0 -6.0600000000000005 14.14 -26.270567103719785 0 0 0
1333 0 6 0 -8.08 12.120000000000001 -26.270567103719785 0 0 0
1330 0 6 0 -10.1 14.14 -26.270567103719785 0 0 0
1382 0 6 0 2.02 18.18 -26.270567103719785 0 0 0
1381 0 6 0 0 16.16 -26.270567103719785 0 0 0
1378 0 6 0 -2.02 18.18 -26.270567103719785 0 0 0
1377 0 6 0 -4.04 16.16 -26.270567103719785 0 0 0
1342 0 6 0 2.02 14.14 -26.270567103719785 0 0 0
1341 0 6 0 0 12.120000000000001 -26.270567103719785 0 0 0
1338 0 6 0 -2.02 14.14 -26.270567103719785 0 0 0
1337 0 6 0 -4.04 12.120000000000001 -26.270567103719785 0 0 0
1390 0 6 0 10.1 18.18 -26.270567103719785 0 0 0
1389 0 6 0 8.08 16.16 -26.270567103719785 0 0 0
1386 0 6 0 6.0600000000000005 18.18 -26.270567103719785 0 0 0
1385 0 6 0 4.04 16.16 -26.270567103719785 0 0 0
1350 0 6 0 10.1 14.14 -26.270567103719785 0 0 0
1349 0 6 0 8.08 12.120000000000001 -26.270567103719785 0 0 0
1346 0 6 0 6.0600000000000005 14.14 -26.270567103719785 0 0 0
1345 0 6 0 4.04 12.120000000000001 -26.270567103719785 0 0 0
1398 0 6 0 18.18 18.18 -26.270567103719785 0 0 0
1397 0 6 0 16.16 16.16 -26.270567103719785 0 0 0
1394 0 6 0 14.14 18.18 -26.270567103719785 0 0 0
1393 0 6 0 12.120000000000001 16.16 -26.270567103719785 0 0 0
1358 0 6 0 18.18 14.14 -26.270567103719785 0 0 0
1357 0 6 0 16.16 12.120000000000001 -26.270567103719785 0 0 0
1354 0 6 0 14.14 14.14 -26.270567103719785 0 0 0
1353 0 6 0 12.120000000000001 12.120000000000001 -26.270567103719785 0 0 0
1403 0 6 0 -18.18 -20.2 -20.21056710371981 0 0 0
1404 0 6 0 -20.2 -18.18 -20.21056710371981 0 0 0
1407 0 6 0 -14.14 -20.2 -20.21056710371981 0 0 0
1408 0 6 0 -16.16 -18.18 -20.21056710371981 0 0 0
1412 0 6 0 -12.120000000000001 -18.18 -20.21056710371981 0 0 0
1443 0 6 0 -18.18 -16.16 -20.21056710371981 0 0 0
1444 0 6 0 -20.2 -14.14 -20.21056710371981 0 0 0
1447 0 6 0 -14.14 -16.16 -20.21056710371981 0 0 0
1448 0 6 0 -16.16 -14.14 -20.21056710371981 0 0 0
1452 0 6 0 -12.120000000000001 -14.14 -20.21056710371981 0 0 0
1483 0 6 0 -18.18 -12.120000000000001 -20.21056710371981 0 0 0
1487 0 6 0 -14.14 -12.120000000000001 -20.21056710371981 0 0 0
1401 0 6 0 -20.2 -20.2 -22.230567103719792 0 0 0
1402 0 6 0 -18.18 -18.18 -22.230567103719792 0 0 0
1405 0 6 0 -16.16 -20.2 -22.230567103719792 0 0 0
1406 0 6 0 -14.14 -18.18 -22.230567103719792 0 0 0
1409 0 6 0 -12.120000000000001 -20.2 -22.230567103719792 0 0 0
1441 0 6 0 -20.2 -16.16 -22.230567103719792 0 0 0
1442 0 6 0 -18.18 -14.14 -22.230567103719792 0 0 0
1445 0 6 0 -16.16 -16.16 -22.230567103719792 0 0 0
1446 0 6 0 -14.14 -14.14 -22.230567103719792 0 0 0
1449 0 6 0 -12.120000000000001 -16.16 -22.230567103719792 0 0 0
1481 0 6 0 -20.2 -12.120000000000001 -22.230567103719792 0 0 0
1485 0 6 0 -16.16 -12.120000000000001 -22.230567103719792 0 0 0
1489 0 6 0 -12.120000000000001 -12.120000000000001 -22.230567103719792 0 0 0
1003 0 6 0 -18.18 -20.2 -24.250567103719767 0 0 0
1004 0 6 0 -20.2 -18.18 -24.250567103719767 0 0 0
1007 0 6 0 -14.14 -20.2 -24.250567103719767 0 0 0
1008 0 6 0 -16.16 -18.18 -24.250567103719767 0 0 0
1012 0 6 0 -12.120000000000001 -18.18 -24.250567103719767 0 0 0
1043 0 6 0 -18.18 -16.16 -24.250567103719767 0 0 0
1044 0 6 0 -20.2 -14.14 -24.250567103719767 0 0 0
1047 0 6 0 -14.14 -16.16 -24.250567103719767 0 0 0
1048 0 6 0 -16.16 -14.14 -24.250567103719767 0 0 0
1052 0 6 0 -12.120000000000001 -14.14 -24.250567103719767 0 0 0
1083 0 6 0 -18.18 -12.120000000000001 -24.250567103719767 0 0 0
1087 0 6 0 -14.14 -12.120000000000001 -24.250567103719767 0 0 0
1801 0 6 0 -20.2 -20.2 -18.1905671037198 0 0 0
1802 0 6 0 -18.18 -18.18 -18.1905671037198 0 0 0
1803 0 6 0 -16.16 -20.2 -18.1905671037198 0 0 0
1804 0 6 0 -14.14 -18.18 -18.1905671037198 0 0 0
1805 0 6 0 -12.120000000000001 -20.2 -18.1905671037198 0 0 0
1821 0 6 0 -20.2 -16.16 -18.1905671037198 0 0 0
1822 0 6 0 -18.18 -14.14 -18.1905671037198 0 0 0
1823 0 6 0 -16.16 -16.16 -18.1905671037198 0 0 0
1824 0 6 0 -14.14 -14.14 -18.1905671037198 0 0 0
1825 0 6 0 -12.120000000000001 -16.16 -18.1905671037198 0 0 0
1841 0 6 0 -20.2 -12.120000000000001 -18.1905671037198 0 0 0
1843 0 6 0 -16.16 -12.120000000000001 -18.1905671037198 0 0 0
1845 0 6 0 -12.120000000000001 -12.120000000000001 -18.1905671037198 0 0 0
5592 1198 1 -1.1128 16.212604753805138 -19.03687617659547 -1.0559090899281902 0 1 0
4577 859 2 0.5564 11.186520353408408 2.3256102366416127 -1.3845101396385686 0 0 0
4290 764 1 -1.1128 0.16058390713943455 3.027745079866272 -0.961991798810438 0 0 0
5475 1159 1 -1.1128 16.773993133044126 -1.4011870744583108 -0.22778221920444536 0 0 0
4812 938 1 -1.1128 2.719100589732727 -13.145150829286365 -0.1741187068659438 0 0 0
6297 1433 1 -1.1128 -14.114111289017915 -10.762225057332818 -1.0746856629969406 0 0 0
6299 1433 2 0.5564 -14.728413194380803 -11.300335370316978 -1.5739880734822589 0 0 0
4528 843 2 0.5564 -11.835786180305105 -4.292767596982448 -0.992706700318628 0 0 0
4826 942 2 0.5564 -9.948906250318707 -0.8781448077462773 -0.16401502320115657 0 0 0
5785 1262 2 0.5564 -19.601557753523625 1.1261913818019753 -1.553841797241729 0 0 0
5174 1058 2 0.5564 9.847308664276946 -4.793555985450758 -0.20916229707145667 0 0 0
2958 320 1 -1.1128 16.435703279508132 10.693318105497038 -9.094631156684144 0 -1 0
3528 510 1 -1.1128 12.046266078042366 18.181421781721475 -4.267563683158322 0 -1 0
1411 0 6 0 -10.1 -20.2 -20.21056710371981 0 0 0
1415 0 6 0 -6.0600000000000005 -20.2 -20.21056710371981 0 0 0
1416 0 6 0 -8.08 -18.18 -20.21056710371981 0 0 0
1451 0 6 0 -10.1 -16.16 -20.21056710371981 0 0 0
1455 0 6 0 -6.0600000000000005 -16.16 -20.21056710371981 0 0 0
1456 0 6 0 -8.08 -14.14 -20.21056710371981 0 0 0
1491 0 6 0 -10.1 -12.120000000000001 -20.21056710371981 0 0 0
1495 0 6 0 -6.0600000000000005 -12.120000000000001 -20.21056710371981 0 0 0
1410 0 6 0 -10.1 -18.18 -22.230567103719792 0 0 0
1413 0 6 0 -8.08 -20.2 -22.230567103719792 0 0 0
1414 0 6 0 -6.0600000000000005 -18.18 -22.230567103719792 0 0 0
1450 0 6 0 -10.1 -14.14 -22.230567103719792 0 0 0
1453 0 6 0 -8.08 -16.16 -22.230567103719792 0 0 0
1454 0 6 0 -6.0600000000000005 -14.14 -22.230567103719792 0 0 0
1493 0 6 0 -8.08 -12.120000000000001 -22.230567103719792 0 0 0
1011 0 6 0 -10.1 -20.2 -24.250567103719767 0 0 0
1015 0 6 0 -6.0600000000000005 -20.2 -24.250567103719767 0 0 0
1016 0 6 0 -8.08 -18.18 -24.250567103719767 0 0 0
1051 0 6 0 -10.1 -16.16 -24.250567103719767 0 0 0
1055 0 6 0 -6.0600000000000005 -16.16 -24.250567103719767 0 0 0
1056 0 6 0 -8.08 -14.14 -24.250567103719767 0 0 0
1091 0 6 0 -10.1 -12.120000000000001 -24.250567103719767 0 0 0
1095 0 6 0 -6.0600000000000005 -12.120000000000001 -24.250567103719767 0 0 0
1806 0 6 0 -10.1 -18.18 -18.1905671037198 0 0 0
1807 0 6 0 -8.08 -20.2 -18.1905671037198 0 0 0
1808 0 6 0 -6.0600000000000005 -18.18 -18.1905671037198 0 0 0
1826 0 6 0 -10.1 -14.14 -18.1905671037198 0 0 0
1827 0 6 0 -8.08 -16.16 -18.1905671037198 0 0 0
1828 0 6 0 -6.0600000000000005 -14.14 -18.1905671037198 0 0 0
1847 0 6 0 -8.08 -12.120000000000001 -18.1905671037198 0 0 0
3530 510 2 0.5564 12.888709792928717 17.7693357473825 -4.4591542363249985 0 -1 0
3462 488 1 -1.1128 12.681985110276523 12.441212513499638 -7.314263447237495 0 0 0
3585 529 1 -1.1128 12.054563476902501 17.737963217619242 -1.4849930052362386 0 -1 0
3587 529 2 0.5564 11.970818138062413 16.83841403678265 -1.16871804043946 0 -1 0
3586 529 2 0.5564 12.055016548950713 17.657922791189584 -2.4388405670918973 0 -1 0
3529 510 2 0.5564 12.150379625009219 19.087210590905233 -4.559006845608447 0 -1 0
5547 1183 1 -1.1128 16.271459158454196 14.051745972853219 -2.1792346679521835 -1 0 0
1419 0 6 0 -2.02 -20.2 -20.21056710371981 0 0 0
1420 0 6 0 -4.04 -18.18 -20.21056710371981 0 0 0
1423 0 6 0 2.02 -20.2 -20.21056710371981 0 0 0
1424 0 6 0 0 -18.18 -20.21056710371981 0 0 0
1459 0 6 0 -2.02 -16.16 -20.21056710371981 0 0 0
1460 0 6 0 -4.04 -14.14 -20.21056710371981 0 0 0
1463 0 6 0 2.02 -16.16 -20.21056710371981 0 0 0
1464 0 6 0 0 -14.14 -20.21056710371981 0 0 0
1499 0 6 0 -2.02 -12.120000000000001 -20.21056710371981 0 0 0
1503 0 6 0 2.02 -12.120000000000001 -20.21056710371981 0 0 0
1417 0 6 0 -4.04 -20.2 -22.230567103719792 0 0 0
1418 0 6 0 -2.02 -18.18 -22.230567103719792 0 0 0
1421 0 6 0 0 -20.2 -22.230567103719792 0 0 0
1422 0 6 0 2.02 -18.18 -22.230567103719792 0 0 0
1457 0 6 0 -4.04 -16.16 -22.230567103719792 0 0 0
1458 0 6 0 -2.02 -14.14 -22.230567103719792 0 0 0
1461 0 6 0 0 -16.16 -22.230567103719792 0 0 0
1462 0 6 0 2.02 -14.14 -22.230567103719792 0 0 0
1497 0 6 0 -4.04 -12.120000000000001 -22.230567103719792 0 0 0
1501 0 6 0 0 -12.120000000000001 -22.230567103719792 0 0 0
1019 0 6 0 -2.02 -20.2 -24.250567103719767 0 0 0
1020 0 6 0 -4.04 -18.18 -24.250567103719767 0 0 0
1023 0 6 0 2.02 -20.2 -24.250567103719767 0 0 0
1024 0 6 0 0 -18.18 -24.250567103719767 0 0 0
1059 0 6 0 -2.02 -16.16 -24.250567103719767 0 0 0
1060 0 6 0 -4.04 -14.14 -24.250567103719767 0 0 0
1063 0 6 0 2.02 -16.16 -24.250567103719767 0 0 0
1064 0 6 0 0 -14.14 -24.250567103719767 0 0 0
1099 0 6 0 -2.02 -12.120000000000001 -24.250567103719767 0 0 0
1103 0 6 0 2.02 -12.120000000000001 -24.250567103719767 0 0 0
1809 0 6 0 -4.04 -20.2 -18.1905671037198 0 0 0
1810 0 6 0 -2.02 -18.18 -18.1905671037198 0 0 0
1811 0 6 0 0 -20.2 -18.1905671037198 0 0 0
1812 0 6 0 2.02 -18.18 -18.1905671037198 0 0 0
1829 0 6 0 -4.04 -16.16 -18.1905671037198 0 0 0
1830 0 6 0 -2.02 -14.14 -18.1905671037198 0 0 0
1831 0 6 0 0 -16.16 -18.1905671037198 0 0 0
1832 0 6 0 2.02 -14.14 -18.1905671037198 0 0 0
1849 0 6 0 -4.04 -12.120000000000001 -18.1905671037198 0 0 0
1851 0 6 0 0 -12.120000000000001 -18.1905671037198 0 0 0
4035 679 1 -1.1128 18.477206184102 15.34861988466656 -5.62421311061255 0 0 0
3197 399 2 0.5564 15.618866563802461 13.811571589320986 -7.519644676534908 0 0 0
3770 590 2 0.5564 19.840144324942006 17.391166584117748 -7.98539150226729 0 0 0
4041 681 1 -1.1128 -20.062738671619268 13.51586612710623 -6.092692342207522 0 0 0
5654 1218 2 0.5564 16.68559894175185 15.511132170517168 -1.5281240664623659 0 -1 0
2901 301 1 -1.1128 15.192596728519401 13.386948811750914 -4.7628675795302495 -1 -1 0
2603 201 2 0.5564 13.605470247427697 13.802083390741101 -8.065097299910972 -1 -1 0
4100 700 2 0.5564 15.476048202571185 17.79843272033971 -6.748449566472338 0 0 0
4036 679 2 0.5564 17.831434088470353 15.151470182891366 -6.302698365304091 0 0 0
4037 679 2 0.5564 19.059514282506417 14.588933556186104 -5.619129221601607 0 0 0
1427 0 6 0 6.0600000000000005 -20.2 -20.21056710371981 0 0 0
1428 0 6 0 4.04 -18.18 -20.21056710371981 0 0 0
1431 0 6 0 10.1 -20.2 -20.21056710371981 0 0 0
1432 0 6 0 8.08 -18.18 -20.21056710371981 0 0 0
1467 0 6 0 6.0600000000000005 -16.16 -20.21056710371981 0 0 0
1468 0 6 0 4.04 -14.14 -20.21056710371981 0 0 0
1471 0 6 0 10.1 -16.16 -20.21056710371981 0 0 0
1472 0 6 0 8.08 -14.14 -20.21056710371981 0 0 0
1507 0 6 0 6.0600000000000005 -12.120000000000001 -20.21056710371981 0 0 0
1511 0 6 0 10.1 -12.120000000000001 -20.21056710371981 0 0 0
1425 0 6 0 4.04 -20.2 -22.230567103719792 0 0 0
1426 0 6 0 6.0600000000000005 -18.18 -22.230567103719792 0 0 0
1429 0 6 0 8.08 -20.2 -22.230567103719792 0 0 0
1430 0 6 0 10.1 -18.18 -22.230567103719792 0 0 0
1465 0 6 0 4.04 -16.16 -22.230567103719792 0 0 0
1466 0 6 0 6.0600000000000005 -14.14 -22.230567103719792 0 0 0
1469 0 6 0 8.08 -16.16 -22.230567103719792 0 0 0
1470 0 6 0 10.1 -14.14 -22.230567103719792 0 0 0
1505 0 6 0 4.04 -12.120000000000001 -22.230567103719792 0 0 0
1509 0 6 0 8.08 -12.120000000000001 -22.230567103719792 0 0 0
1027 0 6 0 6.0600000000000005 -20.2 -24.250567103719767 0 0 0
1028 0 6 0 4.04 -18.18 -24.250567103719767 0 0 0
1031 0 6 0 10.1 -20.2 -24.250567103719767 0 0 0
1032 0 6 0 8.08 -18.18 -24.250567103719767 0 0 0
1067 0 6 0 6.0600000000000005 -16.16 -24.250567103719767 0 0 0
1068 0 6 0 4.04 -14.14 -24.250567103719767 0 0 0
1071 0 6 0 10.1 -16.16 -24.250567103719767 0 0 0
1072 0 6 0 8.08 -14.14 -24.250567103719767 0 0 0
1107 0 6 0 6.0600000000000005 -12.120000000000001 -24.250567103719767 0 0 0
1111 0 6 0 10.1 -12.120000000000001 -24.250567103719767 0 0 0
1813 0 6 0 4.04 -20.2 -18.1905671037198 0 0 0
1814 0 6 0 6.0600000000000005 -18.18 -18.1905671037198 0 0 0
1815 0 6 0 8.08 -20.2 -18.1905671037198 0 0 0
1816 0 6 0 10.1 -18.18 -18.1905671037198 0 0 0
1833 0 6 0 4.04 -16.16 -18.1905671037198 0 0 0
1834 0 6 0 6.0600000000000005 -14.14 -18.1905671037198 0 0 0
1835 0 6 0 8.08 -16.16 -18.1905671037198 0 0 0
1836 0 6 0 10.1 -14.14 -18.1905671037198 0 0 0
1853 0 6 0 4.04 -12.120000000000001 -18.1905671037198 0 0 0
1855 0 6 0 8.08 -12.120000000000001 -18.1905671037198 0 0 0
4684 895 2 0.5564 -7.011818779389867 -17.65582371659924 -0.22648323551336919 0 1 0
4639 880 2 0.5564 17.757927875957378 17.015019094322266 -2.8268029023475236 0 0 0
5652 1218 1 -1.1128 16.851259799736358 16.430896058402887 -1.321187373826429 0 -1 0
3768 590 1 -1.1128 19.831507000604805 17.39866688025536 -7.028259386626174 0 0 0
2902 301 2 0.5564 15.169549106996586 12.430287857511583 -4.740477547492561 -1 -1 0
3407 469 2 0.5564 14.333483951763895 16.124055193190664 -4.543445468634558 0 0 0
2845 282 2 0.5564 18.944598790362573 18.889740622974838 -6.4127601637290645 -1 0 0
3405 469 1 -1.1128 14.43469430377696 17.009325355073273 -4.893138239903351 0 0 0
5548 1183 2 0.5564 15.98010413282662 13.955595972934784 -3.085931577887191 -1 0 0
4098 700 1 -1.1128 15.579909118844167 17.913189090673907 -7.693053252145124 0 0 0
1435 0 6 0 14.14 -20.2 -20.21056710371981 0 0 0
1436 0 6 0 12.120000000000001 -18.18 -20.21056710371981 0 0 0
1439 0 6 0 18.18 -20.2 -20.21056710371981 0 0 0
1440 0 6 0 16.16 -18.18 -20.21056710371981 0 0 0
1475 0 6 0 14.14 -16.16 -20.21056710371981 0 0 0
1476 0 6 0 12.120000000000001 -14.14 -20.21056710371981 0 0 0
1479 0 6 0 18.18 -16.16 -20.21056710371981 0 0 0
1480 0 6 0 16.16 -14.14 -20.21056710371981 0 0 0
1515 0 6 0 14.14 -12.120000000000001 -20.21056710371981 0 0 0
1519 0 6 0 18.18 -12.120000000000001 -20.21056710371981 0 0 0
1433 0 6 0 12.120000000000001 -20.2 -22.230567103719792 0 0 0
1434 0 6 0 14.14 -18.18 -22.230567103719792 0 0 0
1437 0 6 0 16.16 -20.2 -22.230567103719792 0 0 0
1438 0 6 0 18.18 -18.18 -22.230567103719792 0 0 0
1473 0 6 0 12.120000000000001 -16.16 -22.230567103719792 0 0 0
1474 0 6 0 14.14 -14.14 -22.230567103719792 0 0 0
1477 0 6 0 16.16 -16.16 -22.230567103719792 0 0 0
1478 0 6 0 18.18 -14.14 -22.230567103719792 0 0 0
1513 0 6 0 12.120000000000001 -12.120000000000001 -22.230567103719792 0 0 0
1517 0 6 0 16.16 -12.120000000000001 -22.230567103719792 0 0 0
1035 0 6 0 14.14 -20.2 -24.250567103719767 0 0 0
1036 0 6 0 12.120000000000001 -18.18 -24.250567103719767 0 0 0
1039 0 6 0 18.18 -20.2 -24.250567103719767 0 0 0
1040 0 6 0 16.16 -18.18 -24.250567103719767 0 0 0
1075 0 6 0 14.14 -16.16 -24.250567103719767 0 0 0
1076 0 6 0 12.120000000000001 -14.14 -24.250567103719767 0 0 0
1079 0 6 0 18.18 -16.16 -24.250567103719767 0 0 0
1080 0 6 0 16.16 -14.14 -24.250567103719767 0 0 0
1115 0 6 0 14.14 -12.120000000000001 -24.250567103719767 0 0 0
1119 0 6 0 18.18 -12.120000000000001 -24.250567103719767 0 0 0
1817 0 6 0 12.120000000000001 -20.2 -18.1905671037198 0 0 0
1818 0 6 0 14.14 -18.18 -18.1905671037198 0 0 0
1819 0 6 0 16.16 -20.2 -18.1905671037198 0 0 0
1820 0 6 0 18.18 -18.18 -18.1905671037198 0 0 0
1837 0 6 0 12.120000000000001 -16.16 -18.1905671037198 0 0 0
1838 0 6 0 14.14 -14.14 -18.1905671037198 0 0 0
1839 0 6 0 16.16 -16.16 -18.1905671037198 0 0 0
1840 0 6 0 18.18 -14.14 -18.1905671037198 0 0 0
1857 0 6 0 12.120000000000001 -12.120000000000001 -18.1905671037198 0 0 0
1859 0 6 0 16.16 -12.120000000000001 -18.1905671037198 0 0 0
4724 908 2 0.5564 17.418485682843258 18.103900189134638 -0.49513858744395534 0 -1 0
4617 873 1 -1.1128 -9.183576304004871 12.369913896285137 -0.8752340364604994 0 0 0
4723 908 2 0.5564 18.47231572037277 19.12654726894708 -0.8632837723341997 0 -1 0
5322 1108 1 -1.1128 14.642978034211936 18.848768137473037 -3.0076702858030613 0 -1 0
6224 1408 2 0.5564 6.949785557367054 -18.594336109470813 -0.6414103657611817 0 0 0
4640 880 2 0.5564 18.47982813170466 16.66753450673964 -4.111330507894627 0 0 0
5323 1108 2 0.5564 14.089704719001425 19.61229362151316 -2.8428988009962497 0 -1 0
2903 301 2 0.5564 15.706902821274038 13.596433702460294 -5.542507194721226 -1 -1 0
3195 399 1 -1.1128 16.51660703729328 13.993069062224796 -7.241518881567743 0 0 0
4722 908 1 -1.1128 17.66985422763622 19.016533568339504 -0.35320056114048515 0 -1 0
1484 0 6 0 -20.2 -10.1 -20.21056710371981 0 0 0
1488 0 6 0 -16.16 -10.1 -20.21056710371981 0 0 0
1492 0 6 0 -12.120000000000001 -10.1 -20.21056710371981 0 0 0
1523 0 6 0 -18.18 -8.08 -20.21056710371981 0 0 0
1524 0 6 0 -20.2 -6.0600000000000005 -20.21056710371981 0 0 0
1527 0 6 0 -14.14 -8.08 -20.21056710371981 0 0 0
1528 0 6 0 -16.16 -6.0600000000000005 -20.21056710371981 0 0 0
1532 0 6 0 -12.120000000000001 -6.0600000000000005 -20.21056710371981 0 0 0
1482 0 6 0 -18.18 -10.1 -22.230567103719792 0 0 0
1486 0 6 0 -14.14 -10.1 -22.230567103719792 0 0 0
1521 0 6 0 -20.2 -8.08 -22.230567103719792 0 0 0
1522 0 6 0 -18.18 -6.0600000000000005 -22.230567103719792 0 0 0
1525 0 6 0 -16.16 -8.08 -22.230567103719792 0 0 0
1526 0 6 0 -14.14 -6.0600000000000005 -22.230567103719792 0 0 0
1529 0 6 0 -12.120000000000001 -8.08 -22.230567103719792 0 0 0
1084 0 6 0 -20.2 -10.1 -24.250567103719767 0 0 0
1088 0 6 0 -16.16 -10.1 -24.250567103719767 0 0 0
1092 0 6 0 -12.120000000000001 -10.1 -24.250567103719767 0 0 0
1123 0 6 0 -18.18 -8.08 -24.250567103719767 0 0 0
1124 0 6 0 -20.2 -6.0600000000000005 -24.250567103719767 0 0 0
1127 0 6 0 -14.14 -8.08 -24.250567103719767 0 0 0
1128 0 6 0 -16.16 -6.0600000000000005 -24.250567103719767 0 0 0
1132 0 6 0 -12.120000000000001 -6.0600000000000005 -24.250567103719767 0 0 0
1842 0 6 0 -18.18 -10.1 -18.1905671037198 0 0 0
1844 0 6 0 -14.14 -10.1 -18.1905671037198 0 0 0
1861 0 6 0 -20.2 -8.08 -18.1905671037198 0 0 0
1862 0 6 0 -18.18 -6.0600000000000005 -18.1905671037198 0 0 0
1863 0 6 0 -16.16 -8.08 -18.1905671037198 0 0 0
1864 0 6 0 -14.14 -6.0600000000000005 -18.1905671037198 0 0 0
1865 0 6 0 -12.120000000000001 -8.08 -18.1905671037198 0 0 0
4844 948 2 0.5564 13.486723193233964 -10.294147090288753 -1.1204208576283812 0 0 0
5948 1316 2 0.5564 13.804838283759715 17.72208225081031 -0.6520238527199214 0 -1 0
2602 201 2 0.5564 13.660725957232984 15.308479633548748 -8.20516432466478 -1 -1 0
2959 320 2 0.5564 15.495579730890446 10.575126263964172 -8.958870573262384 0 -1 0
3799 600 2 0.5564 13.954901780147422 -19.5566356345024 -7.57050644726877 0 1 0
4966 989 2 0.5564 18.094393609315524 10.213029017371507 -0.48092198049628604 0 0 0
4062 688 1 -1.1128 12.63243323602201 14.518783646332055 -4.502254416200069 0 0 0
1496 0 6 0 -8.08 -10.1 -20.21056710371981 0 0 0
1531 0 6 0 -10.1 -8.08 -20.21056710371981 0 0 0
1535 0 6 0 -6.0600000000000005 -8.08 -20.21056710371981 0 0 0
1536 0 6 0 -8.08 -6.0600000000000005 -20.21056710371981 0 0 0
1490 0 6 0 -10.1 -10.1 -22.230567103719792 0 0 0
1494 0 6 0 -6.0600000000000005 -10.1 -22.230567103719792 0 0 0
1530 0 6 0 -10.1 -6.0600000000000005 -22.230567103719792 0 0 0
1533 0 6 0 -8.08 -8.08 -22.230567103719792 0 0 0
1534 0 6 0 -6.0600000000000005 -6.0600000000000005 -22.230567103719792 0 0 0
1096 0 6 0 -8.08 -10.1 -24.250567103719767 0 0 0
1131 0 6 0 -10.1 -8.08 -24.250567103719767 0 0 0
1135 0 6 0 -6.0600000000000005 -8.08 -24.250567103719767 0 0 0
1136 0 6 0 -8.08 -6.0600000000000005 -24.250567103719767 0 0 0
1846 0 6 0 -10.1 -10.1 -18.1905671037198 0 0 0
1848 0 6 0 -6.0600000000000005 -10.1 -18.1905671037198 0 0 0
1866 0 6 0 -10.1 -6.0600000000000005 -18.1905671037198 0 0 0
1867 0 6 0 -8.08 -8.08 -18.1905671037198 0 0 0
1868 0 6 0 -6.0600000000000005 -6.0600000000000005 -18.1905671037198 0 0 0
3199 400 2 0.5564 12.46600291052777 17.504830732428402 -8.247594752017188 0 0 0
5234 1078 2 0.5564 7.856014449952964 14.984541554755546 -0.7816951723569685 0 0 0
5353 1118 2 0.5564 9.54719950214996 20.05185233137246 -1.8325468442986632 0 -1 0
5528 1176 2 0.5564 5.260556242024859 12.41025087911134 -3.6041765927699245 0 0 0
5527 1176 2 0.5564 6.694001166239137 12.78038812986747 -3.2877428651077407 0 0 0
1500 0 6 0 -4.04 -10.1 -20.21056710371981 0 0 0
1504 0 6 0 0 -10.1 -20.21056710371981 0 0 0