ITEM: TIMESTEP
0
ITEM: NUMBER OF ATOMS
7720
ITEM: BOX BOUNDS pp pp pp
-2.0199999999999999e+01 2.0199999999999999e+01
-2.0199999999999999e+01 2.0199999999999999e+01
-5.2520000000000003e+01 5.2520000000000003e+01
ITEM: ATOMS id type xs ys zs
1001 6 0 0 0.0366958
1002 6 0.05 0.05 0.0366958
1003 6 0.05 0 0.0559266
1004 6 0 0.05 0.0559266
1005 6 0.1 0 0.0366958
1006 6 0.15 0.05 0.0366958
1007 6 0.15 0 0.0559266
1008 6 0.1 0.05 0.0559266
1009 6 0.2 0 0.0366958
1012 6 0.2 0.05 0.0559266
1041 6 0 0.1 0.0366958
1042 6 0.05 0.15 0.0366958
1043 6 0.05 0.1 0.0559266
1044 6 0 0.15 0.0559266
1045 6 0.1 0.1 0.0366958
1046 6 0.15 0.15 0.0366958
1047 6 0.15 0.1 0.0559266
1048 6 0.1 0.15 0.0559266
1049 6 0.2 0.1 0.0366958
1052 6 0.2 0.15 0.0559266
1081 6 0 0.2 0.0366958
1083 6 0.05 0.2 0.0559266
1085 6 0.1 0.2 0.0366958
1087 6 0.15 0.2 0.0559266
1089 6 0.2 0.2 0.0366958
1401 6 0 0 0.0751573
1402 6 0.05 0.05 0.0751573
1405 6 0.1 0 0.0751573
1406 6 0.15 0.05 0.0751573
1409 6 0.2 0 0.0751573
1441 6 0 0.1 0.0751573
1442 6 0.05 0.15 0.0751573
1445 6 0.1 0.1 0.0751573
1446 6 0.15 0.15 0.0751573
1449 6 0.2 0.1 0.0751573
1481 6 0 0.2 0.0751573
1485 6 0.1 0.2 0.0751573
1489 6 0.2 0.2 0.0751573
1010 6 0.25 0.05 0.0366958
1011 6 0.25 0 0.0559266
1013 6 0.3 0 0.0366958
1014 6 0.35 0.05 0.0366958
1015 6 0.35 0 0.0559266
1016 6 0.3 0.05 0.0559266
1050 6 0.25 0.15 0.0366958
1051 6 0.25 0.1 0.0559266
1053 6 0.3 0.1 0.0366958
1054 6 0.35 0.15 0.0366958
1055 6 0.35 0.1 0.0559266
1056 6 0.3 0.15 0.0559266
1091 6 0.25 0.2 0.0559266
1093 6 0.3 0.2 0.0366958
1095 6 0.35 0.2 0.0559266
1410 6 0.25 0.05 0.0751573
1413 6 0.3 0 0.0751573
1414 6 0.35 0.05 0.0751573
1450 6 0.25 0.15 0.0751573
1453 6 0.3 0.1 0.0751573
1454 6 0.35 0.15 0.0751573
1493 6 0.3 0.2 0.0751573
1017 6 0.4 0 0.0366958
1018 6 0.45 0.05 0.0366958
1019 6 0.45 0 0.0559266
1020 6 0.4 0.05 0.0559266
1021 6 0.5 0 0.0366958
1022 6 0.55 0.05 0.0366958
1023 6 0.55 0 0.0559266
1024 6 0.5 0.05 0.0559266
1057 6 0.4 0.1 0.0366958
1058 6 0.45 0.15 0.0366958
1059 6 0.45 0.1 0.0559266
1060 6 0.4 0.15 0.0559266
1061 6 0.5 0.1 0.0366958
1062 6 0.55 0.15 0.0366958
1063 6 0.55 0.1 0.0559266
1064 6 0.5 0.15 0.0559266
1097 6 0.4 0.2 0.0366958
1099 6 0.45 0.2 0.0559266
1101 6 0.5 0.2 0.0366958
1103 6 0.55 0.2 0.0559266
1417 6 0.4 0 0.0751573
1418 6 0.45 0.05 0.0751573
1421 6 0.5 0 0.0751573
1422 6 0.55 0.05 0.0751573
1457 6 0.4 0.1 0.0751573
1458 6 0.45 0.15 0.0751573
1461 6 0.5 0.1 0.0751573
1462 6 0.55 0.15 0.0751573
1497 6 0.4 0.2 0.0751573
1501 6 0.5 0.2 0.0751573
1025 6 0.6 0 0.0366958
1026 6 0.65 0.05 0.0366958
1027 6 0.65 0 0.0559266
1028 6 0.6 0.05 0.0559266
1029 6 0.7 0 0.0366958
1030 6 0.75 0.05 0.0366958
1031 6 0.75 0 0.0559266
1032 6 0.7 0.05 0.0559266
1065 6 0.6 0.1 0.0366958
1066 6 0.65 0.15 0.0366958
1067 6 0.65 0.1 0.0559266
1068 6 0.6 0.15 0.0559266
1069 6 0.7 0.1 0.0366958
1070 6 0.75 0.15 0.0366958
1071 6 0.75 0.1 0.0559266
1072 6 0.7 0.15 0.0559266
1105 6 0.6 0.2 0.0366958
1107 6 0.65 0.2 0.0559266
1109 6 0.7 0.2 0.0366958
1111 6 0.75 0.2 0.0559266
1425 6 0.6 0 0.0751573
1426 6 0.65 0.05 0.0751573
1429 6 0.7 0 0.0751573
1430 6 0.75 0.05 0.0751573
1465 6 0.6 0.1 0.0751573
1466 6 0.65 0.15 0.0751573
1469 6 0.7 0.1 0.0751573
1470 6 0.75 0.15 0.0751573
1505 6 0.6 0.2 0.0751573
1509 6 0.7 0.2 0.0751573
1033 6 0.8 0 0.0366958
1034 6 0.85 0.05 0.0366958
1035 6 0.85 0 0.0559266
1036 6 0.8 0.05 0.0559266
1037 6 0.9 0 0.0366958
1038 6 0.95 0.05 0.0366958
1039 6 0.95 0 0.0559266
1040 6 0.9 0.05 0.0559266
1073 6 0.8 0.1 0.0366958
1074 6 0.85 0.15 0.0366958
1075 6 0.85 0.1 0.0559266
1076 6 0.8 0.15 0.0559266
1077 6 0.9 0.1 0.0366958
1078 6 0.95 0.15 0.0366958
1079 6 0.95 0.1 0.0559266
1080 6 0.9 0.15 0.0559266
1113 6 0.8 0.2 0.0366958
1115 6 0.85 0.2 0.0559266
1117 6 0.9 0.2 0.0366958
1119 6 0.95 0.2 0.0559266
1433 6 0.8 0 0.0751573
1434 6 0.85 0.05 0.0751573
1437 6 0.9 0 0.0751573
1438 6 0.95 0.05 0.0751573
1473 6 0.8 0.1 0.0751573
1474 6 0.85 0.15 0.0751573
1477 6 0.9 0.1 0.0751573
1478 6 0.95 0.15 0.0751573
1513 6 0.8 0.2 0.0751573
1517 6 0.9 0.2 0.0751573
1082 6 0.05 0.25 0.0366958
1084 6 0 0.25 0.0559266
1086 6 0.15 0.25 0.0366958
1088 6 0.1 0.25 0.0559266
1092 6 0.2 0.25 0.0559266
1121 6 0 0.3 0.0366958
1122 6 0.05 0.35 0.0366958
1123 6 0.05 0.3 0.0559266
1124 6 0 0.35 0.0559266
1125 6 0.1 0.3 0.0366958
1126 6 0.15 0.35 0.0366958
1127 6 0.15 0.3 0.0559266
1128 6 0.1 0.35 0.0559266
1129 6 0.2 0.3 0.0366958
1132 6 0.2 0.35 0.0559266
1482 6 0.05 0.25 0.0751573
1486 6 0.15 0.25 0.0751573
1521 6 0 0.3 0.0751573
1522 6 0.05 0.35 0.0751573
1525 6 0.1 0.3 0.0751573
1526 6 0.15 0.35 0.0751573
1529 6 0.2 0.3 0.0751573
1090 6 0.25 0.25 0.0366958
1094 6 0.35 0.25 0.0366958
1096 6 0.3 0.25 0.0559266
1130 6 0.25 0.35 0.0366958
1131 6 0.25 0.3 0.0559266
1133 6 0.3 0.3 0.0366958
1134 6 0.35 0.35 0.0366958
1135 6 0.35 0.3 0.0559266
1136 6 0.3 0.35 0.0559266
1490 6 0.25 0.25 0.0751573
1494 6 0.35 0.25 0.0751573
1530 6 0.25 0.35 0.0751573
1533 6 0.3 0.3 0.0751573
1534 6 0.35 0.35 0.0751573
1098 6 0.45 0.25 0.0366958
1100 6 0.4 0.25 0.0559266
1102 6 0.55 0.25 0.0366958
1104 6 0.5 0.25 0.0559266
1137 6 0.4 0.3 0.0366958
1138 6 0.45 0.35 0.0366958
1139 6 0.45 0.3 0.0559266
1140 6 0.4 0.35 0.0559266
1141 6 0.5 0.3 0.0366958
1142 6 0.55 0.35 0.0366958
1143 6 0.55 0.3 0.0559266
1144 6 0.5 0.35 0.0559266
1498 6 0.45 0.25 0.0751573
1502 6 0.55 0.25 0.0751573
1537 6 0.4 0.3 0.0751573
1538 6 0.45 0.35 0.0751573
1541 6 0.5 0.3 0.0751573
1542 6 0.55 0.35 0.0751573
1106 6 0.65 0.25 0.0366958
1108 6 0.6 0.25 0.0559266
1110 6 0.75 0.25 0.0366958
1112 6 0.7 0.25 0.0559266
1145 6 0.6 0.3 0.0366958
1146 6 0.65 0.35 0.0366958
1147 6 0.65 0.3 0.0559266
1148 6 0.6 0.35 0.0559266
1149 6 0.7 0.3 0.0366958
1150 6 0.75 0.35 0.0366958
1151 6 0.75 0.3 0.0559266
1152 6 0.7 0.35 0.0559266
1506 6 0.65 0.25 0.0751573
1510 6 0.75 0.25 0.0751573
1545 6 0.6 0.3 0.0751573
1546 6 0.65 0.35 0.0751573
1549 6 0.7 0.3 0.0751573
1550 6 0.75 0.35 0.0751573
1114 6 0.85 0.25 0.0366958
1116 6 0.8 0.25 0.0559266
1118 6 0.95 0.25 0.0366958
1120 6 0.9 0.25 0.0559266
1153 6 0.8 0.3 0.0366958
1154 6 0.85 0.35 0.0366958
1155 6 0.85 0.3 0.0559266
1156 6 0.8 0.35 0.0559266
1157 6 0.9 0.3 0.0366958
1158 6 0.95 0.35 0.0366958
1159 6 0.95 0.3 0.0559266
1160 6 0.9 0.35 0.0559266
1514 6 0.85 0.25 0.0751573
1518 6 0.95 0.25 0.0751573
1553 6 0.8 0.3 0.0751573
1554 6 0.85 0.35 0.0751573
1557 6 0.9 0.3 0.0751573
1558 6 0.95 0.35 0.0751573
1161 6 0 0.4 0.0366958
1162 6 0.05 0.45 0.0366958
1163 6 0.05 0.4 0.0559266
1164 6 0 0.45 0.0559266
1165 6 0.1 0.4 0.0366958
1166 6 0.15 0.45 0.0366958
1167 6 0.15 0.4 0.0559266
1168 6 0.1 0.45 0.0559266
1169 6 0.2 0.4 0.0366958
1172 6 0.2 0.45 0.0559266
1201 6 0 0.5 0.0366958
1202 6 0.05 0.55 0.0366958
1203 6 0.05 0.5 0.0559266
1204 6 0 0.55 0.0559266
1205 6 0.1 0.5 0.0366958
1206 6 0.15 0.55 0.0366958
1207 6 0.15 0.5 0.0559266
1208 6 0.1 0.55 0.0559266
1209 6 0.2 0.5 0.0366958
1212 6 0.2 0.55 0.0559266
1561 6 0 0.4 0.0751573
1562 6 0.05 0.45 0.0751573
1565 6 0.1 0.4 0.0751573
1566 6 0.15 0.45 0.0751573
1569 6 0.2 0.4 0.0751573
1601 6 0 0.5 0.0751573
1602 6 0.05 0.55 0.0751573
1605 6 0.1 0.5 0.0751573
1606 6 0.15 0.55 0.0751573
1609 6 0.2 0.5 0.0751573
1170 6 0.25 0.45 0.0366958
1171 6 0.25 0.4 0.0559266
1173 6 0.3 0.4 0.0366958
1174 6 0.35 0.45 0.0366958
1175 6 0.35 0.4 0.0559266
1176 6 0.3 0.45 0.0559266
1210 6 0.25 0.55 0.0366958
1211 6 0.25 0.5 0.0559266
1213 6 0.3 0.5 0.0366958
1214 6 0.35 0.55 0.0366958
1215 6 0.35 0.5 0.0559266
1216 6 0.3 0.55 0.0559266
1570 6 0.25 0.45 0.0751573
1573 6 0.3 0.4 0.0751573
1574 6 0.35 0.45 0.0751573
1610 6 0.25 0.55 0.0751573
1613 6 0.3 0.5 0.0751573
1614 6 0.35 0.55 0.0751573
1177 6 0.4 0.4 0.0366958
1178 6 0.45 0.45 0.0366958
1179 6 0.45 0.4 0.0559266
1180 6 0.4 0.45 0.0559266
1181 6 0.5 0.4 0.0366958
1182 6 0.55 0.45 0.0366958
1183 6 0.55 0.4 0.0559266
1184 6 0.5 0.45 0.0559266
1217 6 0.4 0.5 0.0366958
1218 6 0.45 0.55 0.0366958
1219 6 0.45 0.5 0.0559266
1220 6 0.4 0.55 0.0559266
1221 6 0.5 0.5 0.0366958
1222 6 0.55 0.55 0.0366958
1223 6 0.55 0.5 0.0559266
1224 6 0.5 0.55 0.0559266
1577 6 0.4 0.4 0.0751573
1578 6 0.45 0.45 0.0751573
1581 6 0.5 0.4 0.0751573
1582 6 0.55 0.45 0.0751573
1617 6 0.4 0.5 0.0751573
1618 6 0.45 0.55 0.0751573
1621 6 0.5 0.5 0.0751573
1622 6 0.55 0.55 0.0751573
1185 6 0.6 0.4 0.0366958
1186 6 0.65 0.45 0.0366958
1187 6 0.65 0.4 0.0559266
1188 6 0.6 0.45 0.0559266
1189 6 0.7 0.4 0.0366958
1190 6 0.75 0.45 0.0366958
1191 6 0.75 0.4 0.0559266
1192 6 0.7 0.45 0.0559266
1225 6 0.6 0.5 0.0366958
1226 6 0.65 0.55 0.0366958
1227 6 0.65 0.5 0.0559266
1228 6 0.6 0.55 0.0559266
1229 6 0.7 0.5 0.0366958
1230 6 0.75 0.55 0.0366958
1231 6 0.75 0.5 0.0559266
1232 6 0.7 0.55 0.0559266
1585 6 0.6 0.4 0.0751573
1586 6 0.65 0.45 0.0751573
1589 6 0.7 0.4 0.0751573
1590 6 0.75 0.45 0.0751573
1625 6 0.6 0.5 0.0751573
1626 6 0.65 0.55 0.0751573
1629 6 0.7 0.5 0.0751573
1630 6 0.75 0.55 0.0751573
1193 6 0.8 0.4 0.0366958
1194 6 0.85 0.45 0.0366958
1195 6 0.85 0.4 0.0559266
1196 6 0.8 0.45 0.0559266
1197 6 0.9 0.4 0.0366958
1198 6 0.95 0.45 0.0366958
1199 6 0.95 0.4 0.0559266
1200 6 0.9 0.45 0.0559266
1233 6 0.8 0.5 0.0366958
1234 6 0.85 0.55 0.0366958
1235 6 0.85 0.5 0.0559266
1236 6 0.8 0.55 0.0559266
1237 6 0.9 0.5 0.0366958
1238 6 0.95 0.55 0.0366958
1239 6 0.95 0.5 0.0559266
1240 6 0.9 0.55 0.0559266
1593 6 0.8 0.4 0.0751573
1594 6 0.85 0.45 0.0751573
1597 6 0.9 0.4 0.0751573
1598 6 0.95 0.45 0.0751573
1633 6 0.8 0.5 0.0751573
1634 6 0.85 0.55 0.0751573
1637 6 0.9 0.5 0.0751573
1638 6 0.95 0.55 0.0751573
1241 6 0 0.6 0.0366958
1242 6 0.05 0.65 0.0366958
1243 6 0.05 0.6 0.0559266
1244 6 0 0.65 0.0559266
1245 6 0.1 0.6 0.0366958
1246 6 0.15 0.65 0.0366958
1247 6 0.15 0.6 0.0559266
1248 6 0.1 0.65 0.0559266
1249 6 0.2 0.6 0.0366958
1252 6 0.2 0.65 0.0559266
1281 6 0 0.7 0.0366958
1282 6 0.05 0.75 0.0366958
1283 6 0.05 0.7 0.0559266
1284 6 0 0.75 0.0559266
1285 6 0.1 0.7 0.0366958
1286 6 0.15 0.75 0.0366958
1287 6 0.15 0.7 0.0559266
1288 6 0.1 0.75 0.0559266
1289 6 0.2 0.7 0.0366958
1292 6 0.2 0.75 0.0559266
1641 6 0 0.6 0.0751573
1642 6 0.05 0.65 0.0751573
1645 6 0.1 0.6 0.0751573
1646 6 0.15 0.65 0.0751573
1649 6 0.2 0.6 0.0751573
1681 6 0 0.7 0.0751573
1682 6 0.05 0.75 0.0751573
1685 6 0.1 0.7 0.0751573
1686 6 0.15 0.75 0.0751573
1689 6 0.2 0.7 0.0751573
1250 6 0.25 0.65 0.0366958
1251 6 0.25 0.6 0.0559266
1253 6 0.3 0.6 0.0366958
1254 6 0.35 0.65 0.0366958
1255 6 0.35 0.6 0.0559266
1256 6 0.3 0.65 0.0559266
1290 6 0.25 0.75 0.0366958
1291 6 0.25 0.7 0.0559266
1293 6 0.3 0.7 0.0366958
1294 6 0.35 0.75 0.0366958
1295 6 0.35 0.7 0.0559266
1296 6 0.3 0.75 0.0559266
1650 6 0.25 0.65 0.0751573
1653 6 0.3 0.6 0.0751573
1654 6 0.35 0.65 0.0751573
1690 6 0.25 0.75 0.0751573
1693 6 0.3 0.7 0.0751573
1694 6 0.35 0.75 0.0751573
1257 6 0.4 0.6 0.0366958
1258 6 0.45 0.65 0.0366958
1259 6 0.45 0.6 0.0559266
1260 6 0.4 0.65 0.0559266
1261 6 0.5 0.6 0.0366958
1262 6 0.55 0.65 0.0366958
1263 6 0.55 0.6 0.0559266
1264 6 0.5 0.65 0.0559266
1297 6 0.4 0.7 0.0366958
1298 6 0.45 0.75 0.0366958
1299 6 0.45 0.7 0.0559266
1300 6 0.4 0.75 0.0559266
1301 6 0.5 0.7 0.0366958
1302 6 0.55 0.75 0.0366958
1303 6 0.55 0.7 0.0559266
1304 6 0.5 0.75 0.0559266
1657 6 0.4 0.6 0.0751573
1658 6 0.45 0.65 0.0751573
1661 6 0.5 0.6 0.0751573
1662 6 0.55 0.65 0.0751573
1697 6 0.4 0.7 0.0751573
1698 6 0.45 0.75 0.0751573
1701 6 0.5 0.7 0.0751573
1702 6 0.55 0.75 0.0751573
1265 6 0.6 0.6 0.0366958
1266 6 0.65 0.65 0.0366958
1267 6 0.65 0.6 0.0559266
1268 6 0.6 0.65 0.0559266
1269 6 0.7 0.6 0.0366958
1270 6 0.75 0.65 0.0366958
1271 6 0.75 0.6 0.0559266
1272 6 0.7 0.65 0.0559266
1305 6 0.6 0.7 0.0366958
1306 6 0.65 0.75 0.0366958
1307 6 0.65 0.7 0.0559266
1308 6 0.6 0.75 0.0559266
1309 6 0.7 0.7 0.0366958
1310 6 0.75 0.75 0.0366958
1311 6 0.75 0.7 0.0559266
1312 6 0.7 0.75 0.0559266
1665 6 0.6 0.6 0.0751573
1666 6 0.65 0.65 0.0751573
1669 6 0.7 0.6 0.0751573
1670 6 0.75 0.65 0.0751573
1705 6 0.6 0.7 0.0751573
1706 6 0.65 0.75 0.0751573
1709 6 0.7 0.7 0.0751573
1710 6 0.75 0.75 0.0751573
1273 6 0.8 0.6 0.0366958
1274 6 0.85 0.65 0.0366958
1275 6 0.85 0.6 0.0559266
1276 6 0.8 0.65 0.0559266
1277 6 0.9 0.6 0.0366958
1278 6 0.95 0.65 0.0366958
1279 6 0.95 0.6 0.0559266
1280 6 0.9 0.65 0.0559266
1313 6 0.8 0.7 0.0366958
1314 6 0.85 0.75 0.0366958
1315 6 0.85 0.7 0.0559266
1316 6 0.8 0.75 0.0559266
1317 6 0.9 0.7 0.0366958
1318 6 0.95 0.75 0.0366958
1319 6 0.95 0.7 0.0559266
1320 6 0.9 0.75 0.0559266
1673 6 0.8 0.6 0.0751573
1674 6 0.85 0.65 0.0751573
1677 6 0.9 0.6 0.0751573
1678 6 0.95 0.65 0.0751573
1713 6 0.8 0.7 0.0751573
1714 6 0.85 0.75 0.0751573
1717 6 0.9 0.7 0.0751573
1718 6 0.95 0.75 0.0751573
1321 6 0 0.8 0.0366958
1322 6 0.05 0.85 0.0366958
1323 6 0.05 0.8 0.0559266
1324 6 0 0.85 0.0559266
1325 6 0.1 0.8 0.0366958
1326 6 0.15 0.85 0.0366958
1327 6 0.15 0.8 0.0559266
1328 6 0.1 0.85 0.0559266
1329 6 0.2 0.8 0.0366958
1332 6 0.2 0.85 0.0559266
1361 6 0 0.9 0.0366958
1362 6 0.05 0.95 0.0366958
1363 6 0.05 0.9 0.0559266
1364 6 0 0.95 0.0559266
1365 6 0.1 0.9 0.0366958
1366 6 0.15 0.95 0.0366958
1367 6 0.15 0.9 0.0559266
1368 6 0.1 0.95 0.0559266
1369 6 0.2 0.9 0.0366958
1372 6 0.2 0.95 0.0559266
1721 6 0 0.8 0.0751573
1722 6 0.05 0.85 0.0751573
1725 6 0.1 0.8 0.0751573
1726 6 0.15 0.85 0.0751573
1729 6 0.2 0.8 0.0751573
1761 6 0 0.9 0.0751573
1762 6 0.05 0.95 0.0751573
1765 6 0.1 0.9 0.0751573
1766 6 0.15 0.95 0.0751573
1769 6 0.2 0.9 0.0751573
1330 6 0.25 0.85 0.0366958
1331 6 0.25 0.8 0.0559266
1333 6 0.3 0.8 0.0366958
1334 6 0.35 0.85 0.0366958
1335 6 0.35 0.8 0.0559266
1336 6 0.3 0.85 0.0559266
1370 6 0.25 0.95 0.0366958
1371 6 0.25 0.9 0.0559266
1373 6 0.3 0.9 0.0366958
1374 6 0.35 0.95 0.0366958
1375 6 0.35 0.9 0.0559266
1376 6 0.3 0.95 0.0559266
1730 6 0.25 0.85 0.0751573
1733 6 0.3 0.8 0.0751573
1734 6 0.35 0.85 0.0751573
1770 6 0.25 0.95 0.0751573
1773 6 0.3 0.9 0.0751573
1774 6 0.35 0.95 0.0751573
1337 6 0.4 0.8 0.0366958
1338 6 0.45 0.85 0.0366958
1339 6 0.45 0.8 0.0559266
1340 6 0.4 0.85 0.0559266
1341 6 0.5 0.8 0.0366958
1342 6 0.55 0.85 0.0366958
1343 6 0.55 0.8 0.0559266
1344 6 0.5 0.85 0.0559266
1377 6 0.4 0.9 0.0366958
1378 6 0.45 0.95 0.0366958
1379 6 0.45 0.9 0.0559266
1380 6 0.4 0.95 0.0559266
1381 6 0.5 0.9 0.0366958
1382 6 0.55 0.95 0.0366958
1383 6 0.55 0.9 0.0559266
1384 6 0.5 0.95 0.0559266
1737 6 0.4 0.8 0.0751573
1738 6 0.45 0.85 0.0751573
1741 6 0.5 0.8 0.0751573
1742 6 0.55 0.85 0.0751573
1777 6 0.4 0.9 0.0751573
1778 6 0.45 0.95 0.0751573
1781 6 0.5 0.9 0.0751573
1782 6 0.55 0.95 0.0751573
1345 6 0.6 0.8 0.0366958
1346 6 0.65 0.85 0.0366958
1347 6 0.65 0.8 0.0559266
1348 6 0.6 0.85 0.0559266
1349 6 0.7 0.8 0.0366958
1350 6 0.75 0.85 0.0366958
1351 6 0.75 0.8 0.0559266
1352 6 0.7 0.85 0.0559266
1385 6 0.6 0.9 0.0366958
1386 6 0.65 0.95 0.0366958
1387 6 0.65 0.9 0.0559266
1388 6 0.6 0.95 0.0559266
1389 6 0.7 0.9 0.0366958
1390 6 0.75 0.95 0.0366958
1391 6 0.75 0.9 0.0559266
1392 6 0.7 0.95 0.0559266
1745 6 0.6 0.8 0.0751573
1746 6 0.65 0.85 0.0751573
1749 6 0.7 0.8 0.0751573
1750 6 0.75 0.85 0.0751573
1785 6 0.6 0.9 0.0751573
1786 6 0.65 0.95 0.0751573
1789 6 0.7 0.9 0.0751573
1790 6 0.75 0.95 0.0751573
1353 6 0.8 0.8 0.0366958
1354 6 0.85 0.85 0.0366958
1355 6 0.85 0.8 0.0559266
1356 6 0.8 0.85 0.0559266
1357 6 0.9 0.8 0.0366958
1358 6 0.95 0.85 0.0366958
1359 6 0.95 0.8 0.0559266
1360 6 0.9 0.85 0.0559266
1393 6 0.8 0.9 0.0366958
1394 6 0.85 0.95 0.0366958
1395 6 0.85 0.9 0.0559266
1396 6 0.8 0.95 0.0559266
1397 6 0.9 0.9 0.0366958
1398 6 0.95 0.95 0.0366958
1399 6 0.95 0.9 0.0559266
1400 6 0.9 0.95 0.0559266
1753 6 0.8 0.8 0.0751573
1754 6 0.85 0.85 0.0751573
1757 6 0.9 0.8 0.0751573
1758 6 0.95 0.85 0.0751573
1793 6 0.8 0.9 0.0751573
1794 6 0.85 0.95 0.0751573
1797 6 0.9 0.9 0.0751573
1798 6 0.95 0.95 0.0751573
1403 6 0.05 0 0.0943881
1404 6 0 0.05 0.0943881
1407 6 0.15 0 0.0943881
1408 6 0.1 0.05 0.0943881
1412 6 0.2 0.05 0.0943881
1443 6 0.05 0.1 0.0943881
1444 6 0 0.15 0.0943881
1447 6 0.15 0.1 0.0943881
1448 6 0.1 0.15 0.0943881
1452 6 0.2 0.15 0.0943881
1483 6 0.05 0.2 0.0943881
1487 6 0.15 0.2 0.0943881
1801 6 0 0 0.113619
1802 6 0.05 0.05 0.113619
1803 6 0.1 0 0.113619
1804 6 0.15 0.05 0.113619
1805 6 0.2 0 0.113619
1821 6 0 0.1 0.113619
1822 6 0.05 0.15 0.113619
1823 6 0.1 0.1 0.113619
1824 6 0.15 0.15 0.113619
1825 6 0.2 0.1 0.113619
1841 6 0 0.2 0.113619
1843 6 0.1 0.2 0.113619
1845 6 0.2 0.2 0.113619
2001 1 4.29578e-06 0.0142102 0.152207
2006 2 0.0912459 0.010063 0.149796
2032 2 0.0080112 0.0719321 0.146995
2034 1 0.0951855 0.0992787 0.155692
2035 2 0.11597 0.107924 0.152849
2036 2 0.0973601 0.0979097 0.164751
2037 1 0.197699 0.0893113 0.151733
2039 2 0.194782 0.0912779 0.160744
2008 2 0.198971 0.014681 0.14919
2031 1 0.00374248 0.0943491 0.149446
2033 2 0.0251218 0.103302 0.151336
2003 2 0.0114994 0.00484607 0.159315
2062 2 0.0142805 0.193561 0.147779
1411 6 0.25 0 0.0943881
1415 6 0.35 0 0.0943881
1416 6 0.3 0.05 0.0943881
1451 6 0.25 0.1 0.0943881
1455 6 0.35 0.1 0.0943881
1456 6 0.3 0.15 0.0943881
1491 6 0.25 0.2 0.0943881
1495 6 0.35 0.2 0.0943881
1806 6 0.25 0.05 0.113619
1807 6 0.3 0 0.113619
1808 6 0.35 0.05 0.113619
1826 6 0.25 0.15 0.113619
1827 6 0.3 0.1 0.113619
1828 6 0.35 0.15 0.113619
1847 6 0.3 0.2 0.113619
2038 2 0.220072 0.0961276 0.150274
2040 1 0.302158 0.107454 0.152513
2041 2 0.31602 0.100636 0.159422
2042 2 0.314703 0.102366 0.145034
2043 1 0.395545 0.0962578 0.153976
2045 2 0.394174 0.119188 0.151744
2068 2 0.207898 0.194582 0.148927
2071 2 0.2976 0.187196 0.154543
2014 2 0.403952 0.0108963 0.160594
1419 6 0.45 0 0.0943881
1420 6 0.4 0.05 0.0943881
1423 6 0.55 0 0.0943881
1424 6 0.5 0.05 0.0943881
1459 6 0.45 0.1 0.0943881
1460 6 0.4 0.15 0.0943881
1463 6 0.55 0.1 0.0943881
1464 6 0.5 0.15 0.0943881
1499 6 0.45 0.2 0.0943881
1503 6 0.55 0.2 0.0943881
1809 6 0.4 0 0.113619
1810 6 0.45 0.05 0.113619
1811 6 0.5 0 0.113619
1812 6 0.55 0.05 0.113619
1829 6 0.4 0.1 0.113619
1830 6 0.45 0.15 0.113619
1831 6 0.5 0.1 0.113619
1832 6 0.55 0.15 0.113619
1849 6 0.4 0.2 0.113619
1851 6 0.5 0.2 0.113619
2016 1 0.502606 0.000318881 0.149606
2018 2 0.479376 0.00491876 0.149315
2044 2 0.418452 0.0908177 0.152955
2046 1 0.490388 0.102967 0.150325
2047 2 0.498021 0.0828198 0.154117
2048 2 0.504691 0.10627 0.143172
2050 2 0.599246 0.106334 0.160784
2077 2 0.485415 0.183233 0.148094
2079 1 0.594381 0.190346 0.150929
2073 1 0.401082 0.199205 0.149332
2051 2 0.6039 0.128489 0.149299
1427 6 0.65 0 0.0943881
1428 6 0.6 0.05 0.0943881
1431 6 0.75 0 0.0943881
1432 6 0.7 0.05 0.0943881
1467 6 0.65 0.1 0.0943881
1468 6 0.6 0.15 0.0943881
1471 6 0.75 0.1 0.0943881
1472 6 0.7 0.15 0.0943881
1507 6 0.65 0.2 0.0943881
1511 6 0.75 0.2 0.0943881
1813 6 0.6 0 0.113619
1814 6 0.65 0.05 0.113619
1815 6 0.7 0 0.113619
1816 6 0.75 0.05 0.113619
1833 6 0.6 0.1 0.113619
1834 6 0.65 0.15 0.113619
1835 6 0.7 0.1 0.113619
1836 6 0.75 0.15 0.113619
1853 6 0.6 0.2 0.113619
1855 6 0.7 0.2 0.113619
2020 2 0.608145 0.0185969 0.148676
2023 2 0.704999 0.0108248 0.155894
2027 2 0.786946 0.012965 0.1502
2049 1 0.608185 0.106574 0.152345
2052 1 0.693529 0.0919163 0.152711
2053 2 0.704883 0.108726 0.148002
2054 2 0.670551 0.0966036 0.151412
2055 1 0.795924 0.0984932 0.149938
2056 2 0.78648 0.0945922 0.15816
2080 2 0.603806 0.197335 0.158846
2082 1 0.703578 0.194586 0.150231
2084 2 0.697223 0.195128 0.159007
2085 1 0.794782 0.188313 0.151761
2057 2 0.795473 0.122051 0.148982
2087 2 0.774144 0.198948 0.149943
1435 6 0.85 0 0.0943881
1436 6 0.8 0.05 0.0943881
1439 6 0.95 0 0.0943881
1440 6 0.9 0.05 0.0943881
1475 6 0.85 0.1 0.0943881
1476 6 0.8 0.15 0.0943881
1479 6 0.95 0.1 0.0943881
1480 6 0.9 0.15 0.0943881
1515 6 0.85 0.2 0.0943881
1519 6 0.95 0.2 0.0943881
1817 6 0.8 0 0.113619
1818 6 0.85 0.05 0.113619
1819 6 0.9 0 0.113619
1820 6 0.95 0.05 0.113619
1837 6 0.8 0.1 0.113619
1838 6 0.85 0.15 0.113619
1839 6 0.9 0.1 0.113619
1840 6 0.95 0.15 0.113619
1857 6 0.8 0.2 0.113619
1859 6 0.9 0.2 0.113619
2058 1 0.903127 0.108845 0.15323
2059 2 0.882432 0.0973934 0.153764
2060 2 0.897206 0.131225 0.151291
2088 1 0.896051 0.191083 0.152153
2089 2 0.900196 0.197544 0.160775
7701 3 0.954905 0.0956256 0.160413
2063 2 0.0141117 0.205036 0.161499
2065 2 0.109693 0.203048 0.143278
1484 6 0 0.25 0.0943881
1488 6 0.1 0.25 0.0943881
1492 6 0.2 0.25 0.0943881
1523 6 0.05 0.3 0.0943881
1524 6 0 0.35 0.0943881
1527 6 0.15 0.3 0.0943881
1528 6 0.1 0.35 0.0943881
1532 6 0.2 0.35 0.0943881
1842 6 0.05 0.25 0.113619
1844 6 0.15 0.25 0.113619
1861 6 0 0.3 0.113619
1862 6 0.05 0.35 0.113619
1863 6 0.1 0.3 0.113619
1864 6 0.15 0.35 0.113619
1865 6 0.2 0.3 0.113619
2061 1 0.00331511 0.20841 0.153492
2064 1 0.104245 0.208232 0.151919
2066 2 0.0979515 0.231067 0.151715
2069 2 0.187054 0.220744 0.155423
2091 1 0.00428905 0.304762 0.156224
2092 2 0.0235147 0.292452 0.153786
2094 1 0.100491 0.297195 0.149099
2095 2 0.0941149 0.318595 0.152145
2096 2 0.123413 0.295338 0.151291
2097 1 0.193559 0.292435 0.151107
2098 2 0.19219 0.315335 0.148829
2122 2 0.0125895 0.379476 0.152186
2124 1 0.0909405 0.394553 0.151049
2126 2 0.0979761 0.396297 0.142373
2074 2 0.377421 0.200451 0.14932
2070 1 0.313782 0.202157 0.151197
1496 6 0.3 0.25 0.0943881
1531 6 0.25 0.3 0.0943881
1535 6 0.35 0.3 0.0943881
1536 6 0.3 0.35 0.0943881
1846 6 0.25 0.25 0.113619
1848 6 0.35 0.25 0.113619
1866 6 0.25 0.35 0.113619
1867 6 0.3 0.3 0.113619
1868 6 0.35 0.35 0.113619
2067 1 0.201334 0.202381 0.157153
2072 2 0.303159 0.223329 0.151378
2099 2 0.216785 0.288188 0.151865
2100 1 0.297436 0.290501 0.153862
2101 2 0.299692 0.293634 0.162853
2102 2 0.299816 0.312221 0.150338
2105 2 0.389543 0.295154 0.148698
2128 2 0.212165 0.398339 0.157973
2130 1 0.305463 0.391636 0.149413
2133 1 0.390828 0.393661 0.153146
2134 2 0.399112 0.371767 0.151739
2127 1 0.202544 0.399495 0.149657
2131 2 0.328522 0.396073 0.150627
2075 2 0.407162 0.202253 0.158061
1500 6 0.4 0.25 0.0943881
1504 6 0.5 0.25 0.0943881
1539 6 0.45 0.3 0.0943881
1540 6 0.4 0.35 0.0943881
1543 6 0.55 0.3 0.0943881
1544 6 0.5 0.35 0.0943881
1850 6 0.45 0.25 0.113619
1852 6 0.55 0.25 0.113619
1869 6 0.4 0.3 0.113619
1870 6 0.45 0.35 0.113619
1871 6 0.5 0.3 0.113619
1872 6 0.55 0.35 0.113619
2076 1 0.498973 0.202487 0.149098
2078 2 0.508438 0.200201 0.157406
2081 2 0.582375 0.209241 0.147946
2103 1 0.403696 0.309675 0.153411
2104 2 0.425361 0.30044 0.152414
2106 1 0.495754 0.302371 0.153502
2107 2 0.49347 0.280771 0.149862
2108 2 0.519156 0.305779 0.154059
2109 1 0.588542 0.296818 0.152102
2110 2 0.596906 0.295988 0.160622
2138 2 0.497827 0.389591 0.148168
2140 2 0.594489 0.397433 0.159469
1508 6 0.6 0.25 0.0943881
1512 6 0.7 0.25 0.0943881
1547 6 0.65 0.3 0.0943881
1548 6 0.6 0.35 0.0943881
1551 6 0.75 0.3 0.0943881
1552 6 0.7 0.35 0.0943881
1854 6 0.65 0.25 0.113619
1856 6 0.75 0.25 0.113619
1873 6 0.6 0.3 0.113619
1874 6 0.65 0.35 0.113619
1875 6 0.7 0.3 0.113619
1876 6 0.75 0.35 0.113619
2083 2 0.697017 0.215708 0.146963
2111 2 0.606689 0.304917 0.14714
2112 1 0.70052 0.289711 0.151224
2113 2 0.722269 0.29517 0.148281
2114 2 0.7009 0.294834 0.16012
2115 1 0.792725 0.293425 0.151904
2117 2 0.793216 0.295953 0.160963
2142 1 0.702435 0.394612 0.154432
2143 2 0.683278 0.39432 0.149072
2147 2 0.778386 0.393086 0.152596
2144 2 0.694437 0.387795 0.162599
2086 2 0.81076 0.205796 0.151511
1516 6 0.8 0.25 0.0943881
1520 6 0.9 0.25 0.0943881
1555 6 0.85 0.3 0.0943881
1556 6 0.8 0.35 0.0943881
1559 6 0.95 0.3 0.0943881
1560 6 0.9 0.35 0.0943881
1858 6 0.85 0.25 0.113619
1860 6 0.95 0.25 0.113619
1877 6 0.8 0.3 0.113619
1878 6 0.85 0.35 0.113619
1879 6 0.9 0.3 0.113619
1880 6 0.95 0.35 0.113619
2090 2 0.900138 0.210675 0.147276
2093 2 0.986234 0.293178 0.152355
2116 2 0.815293 0.296035 0.149317
2118 1 0.903403 0.291307 0.151359
2119 2 0.903297 0.296369 0.160261
2120 2 0.907291 0.312129 0.147276
2121 1 0.994047 0.394222 0.152068
2146 2 0.815616 0.396958 0.153276
1563 6 0.05 0.4 0.0943881
1564 6 0 0.45 0.0943881
1567 6 0.15 0.4 0.0943881
1568 6 0.1 0.45 0.0943881
1572 6 0.2 0.45 0.0943881
1603 6 0.05 0.5 0.0943881
1604 6 0 0.55 0.0943881
1607 6 0.15 0.5 0.0943881
1608 6 0.1 0.55 0.0943881
1612 6 0.2 0.55 0.0943881
1881 6 0 0.4 0.113619
1882 6 0.05 0.45 0.113619
1883 6 0.1 0.4 0.113619
1884 6 0.15 0.45 0.113619
1885 6 0.2 0.4 0.113619
1901 6 0 0.5 0.113619
1902 6 0.05 0.55 0.113619
1903 6 0.1 0.5 0.113619
1904 6 0.15 0.55 0.113619
1905 6 0.2 0.5 0.113619
2125 2 0.0921579 0.416699 0.154254
2129 2 0.188336 0.418437 0.149975
2152 2 0.0210423 0.499692 0.152445
2154 1 0.100204 0.493659 0.150774
2155 2 0.0989856 0.496559 0.159806
2156 2 0.0998724 0.515683 0.147417
2158 2 0.184017 0.496518 0.14793
2184 1 0.0996476 0.588909 0.15254
2189 2 0.197614 0.585807 0.150071
2186 2 0.0992527 0.590561 0.161629
2123 2 0.00347886 0.415537 0.150432
2132 2 0.295464 0.413052 0.148779
1571 6 0.25 0.4 0.0943881
1575 6 0.35 0.4 0.0943881
1576 6 0.3 0.45 0.0943881
1611 6 0.25 0.5 0.0943881
1615 6 0.35 0.5 0.0943881
1616 6 0.3 0.55 0.0943881
1886 6 0.25 0.45 0.113619
1887 6 0.3 0.4 0.113619
1888 6 0.35 0.45 0.113619
1906 6 0.25 0.55 0.113619
1907 6 0.3 0.5 0.113619
1908 6 0.35 0.55 0.113619
2157 1 0.207023 0.498757 0.149933
2159 2 0.207787 0.498686 0.159041
2160 1 0.296831 0.502502 0.155956
2161 2 0.314814 0.508531 0.150495
2162 2 0.277398 0.507039 0.151044
2163 1 0.399416 0.493267 0.14983
2165 2 0.392574 0.495259 0.158521
2192 2 0.276723 0.595029 0.152137
2195 2 0.380482 0.594694 0.152336
2137 2 0.501601 0.402409 0.161634
2141 2 0.571686 0.403863 0.148303
2135 2 0.405317 0.407656 0.148349
1579 6 0.45 0.4 0.0943881
1580 6 0.4 0.45 0.0943881
1583 6 0.55 0.4 0.0943881
1584 6 0.5 0.45 0.0943881
1619 6 0.45 0.5 0.0943881
1620 6 0.4 0.55 0.0943881
1623 6 0.55 0.5 0.0943881
1624 6 0.5 0.55 0.0943881
1889 6 0.4 0.4 0.113619
1890 6 0.45 0.45 0.113619
1891 6 0.5 0.4 0.113619
1892 6 0.55 0.45 0.113619
1909 6 0.4 0.5 0.113619
1910 6 0.45 0.55 0.113619
1911 6 0.5 0.5 0.113619
1912 6 0.55 0.55 0.113619
2136 1 0.506485 0.40779 0.15296
2139 1 0.594594 0.402788 0.150593
2164 2 0.422164 0.499893 0.149859
2166 1 0.49848 0.49714 0.155099
2167 2 0.498998 0.473476 0.155498
2168 2 0.518455 0.503029 0.150752
2169 1 0.598582 0.507278 0.149362
2171 2 0.597967 0.522073 0.156476
2198 2 0.484548 0.594641 0.152466
2199 1 0.594268 0.598179 0.153222
2170 2 0.597917 0.485656 0.153079
2145 1 0.795503 0.404443 0.157137
1587 6 0.65 0.4 0.0943881
1588 6 0.6 0.45 0.0943881
1591 6 0.75 0.4 0.0943881
1592 6 0.7 0.45 0.0943881
1627 6 0.65 0.5 0.0943881
1628 6 0.6 0.55 0.0943881
1631 6 0.75 0.5 0.0943881
1632 6 0.7 0.55 0.0943881
1893 6 0.6 0.4 0.113619
1894 6 0.65 0.45 0.113619
1895 6 0.7 0.4 0.113619
1896 6 0.75 0.45 0.113619
1913 6 0.6 0.5 0.113619
1914 6 0.65 0.55 0.113619
1915 6 0.7 0.5 0.113619
1916 6 0.75 0.55 0.113619
2172 1 0.696481 0.501035 0.14972
2173 2 0.689322 0.486857 0.156482
2174 2 0.676604 0.506536 0.145234
2175 1 0.797279 0.499528 0.15631
2176 2 0.79127 0.522324 0.155399
2201 2 0.606252 0.590563 0.145927
2204 2 0.70844 0.579352 0.153321
2205 1 0.797237 0.589644 0.154055
2149 2 0.898278 0.429449 0.149584
2150 2 0.915769 0.400352 0.155685
1595 6 0.85 0.4 0.0943881
1596 6 0.8 0.45 0.0943881
1599 6 0.95 0.4 0.0943881
1600 6 0.9 0.45 0.0943881
1635 6 0.85 0.5 0.0943881
1636 6 0.8 0.55 0.0943881
1639 6 0.95 0.5 0.0943881
1640 6 0.9 0.55 0.0943881
1897 6 0.8 0.4 0.113619
1898 6 0.85 0.45 0.113619
1899 6 0.9 0.4 0.113619
1900 6 0.95 0.45 0.113619
1917 6 0.8 0.5 0.113619
1918 6 0.85 0.55 0.113619
1919 6 0.9 0.5 0.113619
1920 6 0.95 0.55 0.113619
2148 1 0.895644 0.406425 0.151482
2151 1 0.999056 0.498201 0.155792
2153 2 0.990794 0.520389 0.155447
2177 2 0.816329 0.496936 0.150984
2178 1 0.901037 0.491533 0.152638
2179 2 0.905155 0.493386 0.161583
2180 2 0.906395 0.512909 0.149291
2181 1 0.998093 0.589688 0.154133
2208 1 0.906972 0.596604 0.149875
2209 2 0.910921 0.598591 0.158827
1643 6 0.05 0.6 0.0943881
1644 6 0 0.65 0.0943881
1647 6 0.15 0.6 0.0943881
1648 6 0.1 0.65 0.0943881
1652 6 0.2 0.65 0.0943881
1683 6 0.05 0.7 0.0943881
1684 6 0 0.75 0.0943881
1687 6 0.15 0.7 0.0943881
1688 6 0.1 0.75 0.0943881
1692 6 0.2 0.75 0.0943881
1921 6 0 0.6 0.113619
1922 6 0.05 0.65 0.113619
1923 6 0.1 0.6 0.113619
1924 6 0.15 0.65 0.113619
1925 6 0.2 0.6 0.113619
1941 6 0 0.7 0.113619
1942 6 0.05 0.75 0.113619
1943 6 0.1 0.7 0.113619
1944 6 0.15 0.75 0.113619
1945 6 0.2 0.7 0.113619
2182 2 0.0182145 0.602096 0.153519
2185 2 0.100303 0.611369 0.149649
2211 1 0.000646218 0.705195 0.149138
2212 2 0.0237409 0.700726 0.150228
2214 1 0.0897102 0.698718 0.150895
2215 2 0.110436 0.693788 0.154883
2216 2 0.0904529 0.722066 0.149373
2217 1 0.195932 0.690893 0.151568
2219 2 0.191357 0.714139 0.151656
2242 2 0.020544 0.794947 0.149619
2244 1 0.0934969 0.792553 0.151733
2245 2 0.116437 0.794812 0.149626
2247 1 0.195319 0.790927 0.150825
2188 2 0.199974 0.622547 0.152759
1651 6 0.25 0.6 0.0943881
1655 6 0.35 0.6 0.0943881
1656 6 0.3 0.65 0.0943881
1691 6 0.25 0.7 0.0943881
1695 6 0.35 0.7 0.0943881
1696 6 0.3 0.75 0.0943881
1926 6 0.25 0.65 0.113619
1927 6 0.3 0.6 0.113619
1928 6 0.35 0.65 0.113619
1946 6 0.25 0.75 0.113619
1947 6 0.3 0.7 0.113619
1948 6 0.35 0.75 0.113619
2187 1 0.207969 0.601512 0.155611
2190 1 0.297513 0.602829 0.148958
2191 2 0.296218 0.626405 0.149713
2193 1 0.399181 0.604582 0.156441
2218 2 0.219316 0.689406 0.15292
2220 1 0.295683 0.692492 0.151414
2221 2 0.319147 0.689955 0.152216
2222 2 0.292864 0.713916 0.147677
2223 1 0.395284 0.692588 0.151964
2225 2 0.394426 0.709796 0.158219
2249 2 0.217396 0.792098 0.154102
2250 1 0.290932 0.798243 0.152844
2251 2 0.312833 0.796295 0.149449
2252 2 0.293894 0.797333 0.161879
2194 2 0.397468 0.62764 0.154452
1659 6 0.45 0.6 0.0943881
1660 6 0.4 0.65 0.0943881
1663 6 0.55 0.6 0.0943881
1664 6 0.5 0.65 0.0943881
1699 6 0.45 0.7 0.0943881
1700 6 0.4 0.75 0.0943881
1703 6 0.55 0.7 0.0943881
1704 6 0.5 0.75 0.0943881
1929 6 0.4 0.6 0.113619
1930 6 0.45 0.65 0.113619
1931 6 0.5 0.6 0.113619
1932 6 0.55 0.65 0.113619
1949 6 0.4 0.7 0.113619
1950 6 0.45 0.75 0.113619
1951 6 0.5 0.7 0.113619
1952 6 0.55 0.75 0.113619
2196 1 0.499946 0.612629 0.152793
2197 2 0.521231 0.602224 0.152863