LAMMPS data file via write_data, version 2 Aug 2023, timestep = 200000, units = real

1491 atoms
5 atom types
686 bonds
1 bond types
343 angles
1 angle types

-12.120000000000001 12.120000000000001 xlo xhi
-12.120000000000001 12.120000000000001 ylo yhi
-28.28 28.28 zlo zhi

Masses

1 15.9994
2 1.008
3 28.99
4 35.453
5 26.9815

Pair Coeffs # lj/cut/tip4p/long

1 0.185199 3.1589
2 0 0
3 0.0469 2.4299
4 0.15 4.0447
5 11.697 2.574

Bond Coeffs # harmonic

1 0 0.9572

Angle Coeffs # harmonic

1 0 104.52

Atoms # full

695 88 2 0.5564 -11.855641131021795 -11.637496252549038 -3.826545332983904 0 -1 0
587 52 2 0.5564 -8.507332904668212 -9.108494381037483 -1.967778027871822 0 -1 0
1482 0 4 -1.1 -9.601888870325926 -10.306251439429198 -3.8450161860525953 -1 0 0
912 160 2 0.5564 -11.847551076092516 -8.491595307852233 -6.8808502202642075 -1 0 0
84 0 5 0 -6.394410194126394 -1.2808144043870098 -9.14947051592028 -1 -1 0
1016 195 2 0.5564 -11.074413403817914 -10.631196448771348 -6.76215043147691 -1 0 0
956 175 2 0.5564 -10.782964641161717 -6.705473148105517 -7.4593927158783 -1 0 0
1017 195 2 0.5564 -10.296940481132749 -11.031393378552806 -5.526321075831418 -1 0 0
1041 203 2 0.5564 -10.634229324734749 -6.9494654421572895 -3.922143155693262 0 0 0
1040 203 2 0.5564 -9.875820258656768 -8.191312161415732 -4.339908506643891 0 0 0
19 0 5 0 -10.464685285438465 -3.245491449370741 -11.158637689980795 -1 -1 0
957 175 2 0.5564 -10.106062584568281 -7.139923076078142 -6.176834359526583 -1 0 0
283 0 5 0 -10.493576519868123 -7.277760938905553 -11.191310093193229 -1 0 0
1015 195 1 -1.1128 -10.563799114762512 -11.349580344029379 -6.388744568801523 -1 0 0
258 0 5 0 -10.532616706201487 -9.291728236155551 -13.099920852130326 -1 0 0
310 0 5 0 -10.479340600962795 -9.321064505373178 -9.199234438026648 -1 0 0
259 0 5 0 -10.490186635081459 -11.356197592853585 -11.127599778220297 -1 0 0
322 0 5 0 -10.442556000163306 -5.1991826789930045 -9.175733790646834 -1 0 0
282 0 5 0 -10.471685527229726 -5.275389910703428 -13.14980571224968 -1 0 0
646 72 1 -1.1128 -7.70100069116795 -5.557762624425434 -3.7059203299209393 -1 -1 0
955 175 1 -1.1128 -10.514563515994915 -7.483863580060599 -6.971231493205839 -1 0 0
953 174 2 0.5564 -9.846704173692155 -3.869135559667828 -6.7165857175772326 -1 0 0
648 72 2 0.5564 -8.379864764177901 -6.227253653799835 -3.6213359218997714 -1 -1 0
952 174 1 -1.1128 -10.62971824608996 -3.3189280099535794 -6.69676998189439 -1 0 0
501 23 2 0.5564 -5.08432968785001 -10.6254834628843 -0.8560629586468155 -1 -1 0
588 52 2 0.5564 -7.944395068974998 -8.051082274627166 -1.0421026259476196 0 -1 0
1039 203 1 -1.1128 -9.802239788517367 -7.237889504082784 -4.297427021950667 0 0 0
1148 239 2 0.5564 -7.417627855188755 -10.784235661550678 -3.68478616729243 -1 -1 0
954 174 2 0.5564 -11.35888566635567 -3.937584214471283 -6.739326954591623 -1 0 0
1474 0 3 1.1 -4.331345786365996 -3.797570104408314 -2.197932070256081 0 0 0
647 72 2 0.5564 -8.038084220485455 -4.810419598135046 -3.2118710955353764 -1 -1 0
936 168 2 0.5564 -8.641980398234612 -9.526964398602766 -5.833585703002663 -1 0 0
921 163 2 0.5564 -7.9785636073087565 -5.800235012760241 -7.03773050680984 -2 0 0
83 0 5 0 -8.471458825594377 -3.1768870110823255 -9.124970068912104 -1 -1 0
285 0 5 0 -8.440993609696557 -7.335781204124363 -13.101859458498769 -1 0 0
311 0 5 0 -8.466404463617655 -11.342307458973353 -9.116624480291197 -1 0 0
261 0 5 0 -8.475407271564881 -11.385349099644417 -13.173249019419337 -1 0 0
264 0 5 0 -8.452917478059963 -9.36508994012091 -11.166775576179123 -1 0 0
323 0 5 0 -8.44644576328775 -7.240528966447622 -9.242417034036134 -1 0 0
1366 312 1 -1.1128 11.672696859744486 -6.016820274119906 -4.252128090434162 -1 0 0
934 168 1 -1.1128 -8.235208741803142 -9.123460672846779 -6.6003683127757435 -1 0 0
288 0 5 0 -8.332188685752696 -5.2726383847113585 -11.119604441979243 -1 0 0
21 0 5 0 -8.437657799222295 -3.363914376632212 -13.174340148380448 -1 -1 0
935 168 2 0.5564 -8.940412476654627 -8.622844045513903 -7.010615754999105 -1 0 0
919 163 1 -1.1128 -8.482002384552521 -5.074019400837772 -6.669770676566317 -2 0 0
1140 236 2 0.5564 -6.417739837547736 -8.583381317935054 -4.045750050280013 0 0 0
1139 236 2 0.5564 -6.471398155345718 -7.199334445794697 -3.4346597296478265 0 0 0
1138 236 1 -1.1128 -5.908790375011232 -7.778531628325322 -3.948697172380541 0 0 0
920 163 2 0.5564 -8.25123666130156 -5.068409410900771 -5.74082019022306 -2 0 0
586 52 1 -1.1128 -7.904613676563045 -8.988008288856665 -1.2339908854852364 0 -1 0
1489 0 4 -1.1 -4.663178496981141 -5.984456172837343 -1.1678702889723778 0 0 0
499 23 1 -1.1128 -5.197999642225067 -9.767340848942688 -1.2646017464880939 -1 -1 0
500 23 2 0.5564 -6.1448698296998 -9.62715880293079 -1.2689817721313552 -1 -1 0
584 51 2 0.5564 -5.489009221714514 -3.868932866752266 -6.630225190185898 -2 -1 0
879 149 2 0.5564 -6.3541405618703495 -6.914455392954353 -5.692452432278665 -2 0 0
1150 240 1 -1.1128 -11.344164247745182 -8.869134251418453 -1.99452674008866 0 0 0
1149 239 2 0.5564 -6.52017467895498 -10.874471193319328 -4.90065193930581 -1 -1 0
24 0 5 0 -8.517238676850102 -1.2630261922315387 -11.145187856106427 -1 -1 0
450 6 2 0.5564 -11.944905442754434 -1.9020406514787134 -6.415221902491847 -1 -1 0
312 0 5 0 -6.450392973983388 -9.307966983818075 -9.01166670028566 -1 0 0
263 0 5 0 -6.4885366680518946 -11.351389058920219 -11.173984428626587 -1 0 0
877 149 1 -1.1128 -6.504038180970339 -7.167284336297882 -6.603408111094706 -2 0 0
583 51 1 -1.1128 -5.990900565601547 -3.117318923322239 -6.314923939629002 -2 -1 0
1147 239 1 -1.1128 -6.498044971118034 -10.766060096503411 -3.9498684977128815 -1 -1 0
556 42 1 -1.1128 -6.4273025730252415 -11.189361502585037 -6.622464553746307 -1 0 0
701 90 2 0.5564 -6.827502467299506 -6.296075736186054 -0.812440414959265 0 -1 0
23 0 5 0 -6.352103178940226 -3.3130494668208352 -11.201250219069587 -1 -1 0
324 0 5 0 -6.3667997492972725 -5.321638350203274 -9.08880288690379 -1 0 0
262 0 5 0 -6.4000370756085125 -9.294309932057324 -13.242812862526925 -1 0 0
286 0 5 0 -6.406628896371553 -5.3667708690777784 -13.164139760064696 -1 0 0
287 0 5 0 -6.381554433825561 -7.300685243183382 -11.1621888341515 -1 0 0
82 0 5 0 -10.480754691320785 -1.2856263554945224 -9.029252100940782 -1 -1 0
18 0 5 0 -10.417738564797128 -1.26188091016001 -13.075321850986859 -1 -1 0
22 0 5 0 -6.444393478936543 -1.295090436823761 -13.104976691104122 -1 -1 0
557 42 2 0.5564 -6.964561533859369 -10.400538304586131 -6.695554549921532 -1 0 0
558 42 2 0.5564 -5.528953511821414 -10.87931141334774 -6.736788735229128 -1 0 0
771 113 2 0.5564 -6.277468480420174 -1.9068589120688728 -3.0979697495757987 -1 -1 0
1151 240 2 0.5564 -10.826623901075818 -9.425690114881137 -2.576443016202978 0 0 0
770 113 2 0.5564 -5.926233336703975 -2.4998235620594773 -4.445902387784805 -1 -1 0
1161 243 2 0.5564 -9.573309348231222 -3.5227039123598285 -1.5094352911490003 0 -1 0
535 35 1 -1.1128 -8.629753762861252 -1.1696117177056835 -6.341767442668589 -1 -1 0
769 113 1 -1.1128 -5.548750589782586 -2.2794571213029586 -3.594328681598842 -1 -1 0
718 96 1 -1.1128 -11.578228666449787 -1.8439728012472865 -2.7523038741354364 0 -1 0
1159 243 1 -1.1128 -9.657886170576818 -4.28404754910018 -2.08339991225794 0 -1 0
720 96 2 0.5564 11.85801693254883 -2.2777614075878865 -3.038729325383479 -1 -1 0
585 51 2 0.5564 -6.803049595903861 -3.1417320559664037 -6.820936408036587 -2 -1 0
878 149 2 0.5564 -7.056020668690648 -7.947351316777426 -6.548248108518955 -2 0 0
634 68 1 -1.1128 -8.859642077434067 -11.561816339220128 -0.21336215868264866 0 -1 0
1152 240 2 0.5564 -11.282596413898478 -9.293772490292382 -1.1388844252985026 0 0 0
702 90 2 0.5564 -8.136019330291933 -5.537341502699203 -0.7491927520024464 0 -1 0
536 35 2 0.5564 -8.495730912723447 -1.4404277538055508 -5.433511807863167 -1 -1 0
537 35 2 0.5564 -9.203885254417312 -1.8410837830812843 -6.710181359396348 -1 -1 0
1083 217 2 0.5564 -4.563529920310171 -10.325382830224807 -3.5797556613522215 0 0 0
461 10 2 0.5564 -5.244273477906775 -6.119396177393786 -6.924644582431551 -2 -1 0
462 10 2 0.5564 -4.29192468910657 -5.480334607044671 -5.936450362081448 -2 -1 0
700 90 1 -1.1128 -7.7330900476059705 -6.372563282757605 -0.5119504152574818 0 -1 0
759 109 2 0.5564 -9.852788404532385 -1.9136593809919933 -3.3588400531364795 0 -2 0
449 6 2 0.5564 -11.955853384598559 -0.45766112489003347 -6.868590068650472 -1 -1 0
522 30 2 0.5564 -5.175526302419379 -1.79492897463205 -6.771540642508534 -2 -1 0
758 109 2 0.5564 -8.675281542554107 -1.0605968965273993 -2.937350353762597 0 -2 0
757 109 1 -1.1128 -8.95140783264019 -1.6968429470227404 -3.597029524985706 0 -2 0
301 0 5 0 -4.487910650761468 -11.33340096716339 -9.15064285834951 -2 0 0
244 0 5 0 -4.4699487428451095 -9.32157027693203 -11.141605220190403 -2 0 0
460 10 1 -1.1128 -4.568115413361301 -5.4457452797785315 -6.85228576855027 -2 -1 0
719 96 2 0.5564 -11.655714550860417 -1.8001316497358006 -1.7992528216877322 0 -1 0
1160 243 2 0.5564 -10.413225388731044 -4.084829426859688 -2.636581861632443 0 -1 0
1470 0 3 1.1 -4.061403769612282 -7.9926510028387225 -2.5448436242692325 -1 0 0
658 76 1 -1.1128 9.961499877503265 -5.311638134783083 -0.5306374120680873 0 -1 0
520 30 1 -1.1128 -4.491344113093666 -1.1535762563369314 -6.963354035612742 -2 -1 0
73 0 5 0 -4.357605862343316 -3.320999560423022 -9.237571632585649 -2 -1 0
265 0 5 0 -4.411619042101833 -7.35378152970548 -13.327929013197496 -2 0 0
313 0 5 0 -4.362001774510636 -7.309458183158 -9.106056419039945 -2 0 0
268 0 5 0 -4.381317975748692 -5.355932070796396 -11.16594160477909 -2 0 0
241 0 5 0 -4.377455888309968 -11.418601709020818 -13.214359157394897 -2 0 0
1 0 5 0 -4.433241118586494 -3.2526754538043314 -13.224129275265614 -2 -1 0
4 0 5 0 -4.295433209982684 -1.2209929544416336 -11.162128145285244 -2 -1 0
699 89 2 0.5564 0.6327330499172387 -3.1067765568439865 -0.16607303131343853 0 -1 0
518 29 2 0.5564 -5.804249593942983 -0.10124810595045661 -6.7445442901751465 -2 -1 0
1367 312 2 0.5564 11.012624495234677 -5.386892196787598 -3.962769849025782 -1 0 0
863 144 2 0.5564 8.358288036844593 -11.777081342708254 -0.00690088722399408 1 0 0
514 28 1 -1.1128 1.144591663286948 -6.093042260547423 -0.09801087307923362 0 -1 0
1163 244 2 0.5564 9.78405121343943 -3.6173255287992636 -0.4730194306338163 0 -1 0
1276 282 1 -1.1128 1.97019464260715 -9.996421880265913 -0.15257334459360292 0 0 0
1081 217 1 -1.1128 -3.7889653754706525 -9.851280714144954 -3.882261265558113 0 0 0
1004 191 2 0.5564 -4.029647284830618 -9.42434804422521 -5.7887151978272 -2 0 0
1044 204 2 0.5564 0.45608416568181437 -0.384281830205597 -4.40310563030784 -1 -1 0
521 30 2 0.5564 -3.9308714018354003 -1.1612466844543632 -6.187439637953206 -2 -1 0
638 69 2 0.5564 -3.072472870582795 -3.844711115480885 -4.974955472078967 0 -1 0
637 69 1 -1.1128 -3.451765680277407 -4.449067889946729 -4.336893894530056 0 -1 0
639 69 2 0.5564 -2.7640751853970724 -5.096440112492901 -4.181253876904148 0 -1 0
568 46 1 -1.1128 -2.5402926202875578 -2.3926093430460282 -1.919471645117311 -1 -1 0
570 46 2 0.5564 -2.5749169246651076 -1.6046953688673047 -1.3770469819772302 -1 -1 0
900 156 2 0.5564 0.7892204342067684 -11.95861916586721 -6.688475267299013 -2 0 0
563 44 2 0.5564 -2.988310200069299 -1.835176034856156 -3.5307424024004184 -1 -1 0
944 171 2 0.5564 2.910560450783212 -4.651324803752344 -6.370965104272369 -2 0 0
454 8 1 -1.1128 -0.35388038663824883 -1.3723363819411207 -6.687359379127947 -2 -1 0
1013 194 2 0.5564 -2.0653952943542877 -7.220617937721679 -4.783921934271658 -1 0 0
1270 280 1 -1.1128 0.43132885812134114 -3.3368654987459214 -2.3429473769000984 1 0 0
76 0 5 0 1.5258350434571182 -1.2386207693758964 -9.195115759872934 -2 -1 0
1272 280 2 0.5564 0.6750634315198645 -4.260626167453656 -2.4020446312870205 1 0 0
74 0 5 0 -2.368897933540131 -1.2127249007877006 -9.152003663244814 -2 -1 0
456 8 2 0.5564 0.19206120895479548 -2.108790599513372 -6.962704594498811 -2 -1 0
636 68 2 0.5564 -8.58996901012694 -10.674649604624076 -0.4509415262465826 0 -1 0
524 31 2 0.5564 0.573832735565649 -7.504268893669071 -3.28759147325844 0 -1 0
1043 204 2 0.5564 0.8805908608326989 -0.7808456242270494 -3.0050967100323773 -1 -1 0
507 25 2 0.5564 -0.837642506821454 -10.96412645474838 -3.567918558321255 -1 -1 0
882 150 2 0.5564 -3.0709531516057607 -3.452003722816667 -7.398405195801157 -2 -1 0
5 0 5 0 -0.357749407298364 -3.310838513032883 -13.127327239182371 -2 -1 0
243 0 5 0 -2.33787884641831 -11.364467727951865 -11.15812160151133 -2 0 0
1036 202 1 -1.1128 10.858159469326141 -3.553340208100644 -3.8013473867437253 -1 -1 0
1012 194 1 -1.1128 -2.325533076823493 -7.164210944728317 -3.864477323289066 -1 0 0
1014 194 2 0.5564 -1.521547521118361 -6.928387718709407 -3.401631823561371 -1 0 0
1005 191 2 0.5564 -3.631058543363056 -10.159277530784019 -7.050816831163306 -2 0 0
1003 191 1 -1.1128 -4.202994627910819 -9.462311158785438 -6.729322136059624 -2 0 0
1082 217 2 0.5564 -3.0516185585601328 -10.397167324241384 -3.6092046844122647 0 0 0
640 70 1 -1.1128 1.4037982288639883 -9.045394226568535 -4.127493118055212 0 -1 0
641 70 2 0.5564 0.7362584375800181 -8.971475461301898 -4.809518756064763 0 -1 0
1109 226 2 0.5564 -3.0981996488007777 -8.125133961445098 -6.93064548117239 -2 0 0
1026 198 2 0.5564 0.5623837011522799 -9.938773616531357 -1.2203880204090642 -1 0 0
1025 198 2 0.5564 0.9502785197640856 -9.87678019052878 -2.682438424931914 -1 0 0
1110 226 2 0.5564 -3.118863788493394 -6.6118266311152905 -6.967640972639265 -2 0 0
1024 198 1 -1.1128 0.19272262399846152 -9.95870730971243 -2.103102088537869 -1 0 0
3 0 5 0 -2.420991816705108 -3.2575035512229507 -11.262445617958205 -2 -1 0
266 0 5 0 -2.376316829427781 -5.346171972291843 -13.189664122430116 -2 0 0
314 0 5 0 -2.4037349664000827 -5.370813359913105 -9.244258757852947 -2 0 0
1108 226 1 -1.1128 -2.5417293845375974 -7.3571249666154355 -6.801278897690854 -2 0 0
302 0 5 0 -2.4662484228468027 -9.336314651021397 -9.120995237622566 -2 0 0
242 0 5 0 -2.431892800022282 -9.337562298948793 -13.19986958403286 -2 0 0
267 0 5 0 -2.4347972335844426 -7.3911967255507856 -11.208143693715767 -2 0 0
642 70 2 0.5564 2.1626481215447555 -8.583027804010646 -4.483299013007242 0 -1 0
880 150 1 -1.1128 -2.3375818235022154 -3.4746977287386516 -6.783683982419088 -2 -1 0
895 155 1 -1.1128 -2.3464689126417384 -11.550089873202795 -6.797271191720055 -2 0 0
897 155 2 0.5564 -2.102501156669311 -11.398023889096281 -5.884261431198193 -2 0 0
437 2 2 0.5564 -1.2159053420432269 -4.850637375415519 -6.983707778953606 -2 -1 0
923 164 2 0.5564 0.5272857081571466 -8.562644854585454 -6.77827353790139 -2 0 0
881 150 2 0.5564 -2.0828017418254046 -2.557860533614166 -6.680102206329949 -2 -1 0
315 0 5 0 -0.36836647553163937 -7.302504497853778 -9.125389631125115 -2 0 0
922 164 1 -1.1128 -0.2503983345263871 -9.028656719754498 -6.471232431277383 -2 0 0
269 0 5 0 -0.40622896828911825 -7.4497493245736 -13.094326527492145 -2 0 0
436 2 1 -1.1128 -0.5421317016391253 -5.431230778329053 -6.629911983049042 -2 -1 0
438 2 2 0.5564 -0.7896003203684174 -6.30259653352053 -6.939286668157035 -2 -1 0
272 0 5 0 -0.48124351776390295 -5.369588710385927 -11.218910152050439 -2 0 0
75 0 5 0 -0.46599365760423916 -3.336689648484205 -9.178847036979578 -2 -1 0
505 25 1 -1.1128 -1.250079723384581 -11.434525863046938 -4.292385306296691 -1 -1 0
1198 256 1 -1.1128 3.272737201173945 -11.544756417082692 -4.368040331691123 -1 0 0
303 0 5 0 -0.3346360259018799 -11.388736863219359 -9.108165100527783 -2 0 0
245 0 5 0 -0.2794438401662096 -11.3608742895521 -13.139832591033015 -2 0 0
248 0 5 0 -0.31940673043653733 -9.37487984377435 -11.028023307571322 -2 0 0
562 44 1 -1.1128 -2.8122194832865914 -1.382865149948889 -4.355750946993444 -1 -1 0
924 164 2 0.5564 -0.9839667179047956 -8.558622469602843 -6.8676852458896915 -2 0 0
525 31 2 0.5564 0.5387695196952099 -6.641800049677577 -2.0438817941443084 0 -1 0
1399 323 1 -1.1128 -2.287087895883275 -8.90993081559059 -1.4017705714235562 0 -1 0
523 31 1 -1.1128 0.17408309698537805 -6.71326808648547 -2.925997828965896 0 -1 0
899 156 2 0.5564 0.7586159836511116 -10.465743352896757 -6.43891642464991 -2 0 0
6 0 5 0 1.642395454673435 -1.2493090385486754 -13.138633416378747 -2 -1 0
504 24 2 0.5564 0.740309855779527 -3.975290201917204 -6.563687875706459 -2 -1 0
2 0 5 0 -2.3774233323267437 -1.2514204161402658 -13.267686537324787 -2 -1 0
925 165 1 -1.1128 1.6232442989024394 -7.028615856228376 -6.732442471742976 -2 0 0
1183 251 1 -1.1128 2.5138960660473897 -2.7700219873063836 -4.39619975797727 -1 -1 0
246 0 5 0 1.7353492881744472 -9.316211439612028 -13.125644590028141 -2 0 0
1200 256 2 0.5564 2.5029133913345385 -11.296114888600474 -4.87968791068928 -1 0 0
502 24 1 -1.1128 1.5124472504485404 -3.4303631984554013 -6.715637363834161 -2 -1 0
316 0 5 0 1.5516413197089856 -5.268318607717791 -9.172463597389443 -2 0 0
503 24 2 0.5564 1.9110472102587326 -3.332484301293815 -5.850901060740039 -2 -1 0
304 0 5 0 1.8084157962511265 -9.388367151973894 -9.079157343161688 -2 0 0
7 0 5 0 1.698525183813981 -3.2763654331760623 -11.150958727222989 -2 -1 0
271 0 5 0 1.6790423865523816 -7.308130091147174 -11.12968546818359 -2 0 0
898 156 1 -1.1128 1.3476181323404797 -11.22024274860172 -6.44511393218683 -2 0 0
247 0 5 0 1.6626821752943806 -11.386320656343049 -11.067098926239572 -2 0 0
270 0 5 0 1.6559166889600792 -5.299238196332073 -13.113722596305404 -2 0 0
8 0 5 0 -0.48034714203641693 -1.2032287521665361 -11.193218398993565 -2 -1 0
927 165 2 0.5564 2.422597380650873 -6.540832365567515 -6.5341123452310335 -2 0 0
926 165 2 0.5564 0.9168573727919747 -6.397019315854683 -6.597035753272566 -2 0 0
1271 280 2 0.5564 0.8258658654707877 -2.934590757053316 -3.1167361494390686 1 0 0
1185 251 2 0.5564 2.9726466032248497 -1.9928748717215132 -4.715296565885155 -1 -1 0
1400 323 2 0.5564 -1.3835331794802983 -8.920362047420527 -1.7175435346772423 0 -1 0
1102 224 1 -1.1128 3.8485613728609067 -7.809163074510709 -4.086326084754579 0 0 0
1032 200 2 0.5564 2.6153020970291476 -9.834214721039757 -6.890053716697555 -2 0 0
1184 251 2 0.5564 3.2121209270438325 -3.3724828194105063 -4.139770230255291 -1 -1 0
443 4 2 0.5564 3.0724103753894374 -0.7741930710499877 -6.476037685951211 -2 -1 0
444 4 2 0.5564 3.0306555472384757 -2.098425246610006 -7.208540097230347 -2 -1 0
747 105 2 0.5564 2.7963191534807086 -0.32214548586772834 -1.2366289856727888 0 -1 0
661 77 1 -1.1128 3.797409397109828 -5.4031026934222846 -0.273696943645218 0 -1 0
278 0 5 0 9.651546156301608 -5.269654665997237 -13.140104870288825 -2 0 0
569 46 2 0.5564 -1.6407238164224647 -2.420234151950105 -2.2454221560932104 -1 -1 0
442 4 1 -1.1128 3.627474914033657 -1.5016603754386375 -6.756977085715918 -2 -1 0
455 8 2 0.5564 0.24299241505102406 -0.6242096922325459 -6.670607631426315 -2 -1 0
77 0 5 0 3.6295245763390773 -3.2578486183733966 -9.194243112978183 -2 -1 0
12 0 5 0 3.6050524012810503 -1.2325611872354794 -11.096471524108459 -2 -1 0
1354 308 1 -1.1128 -4.278926883739893 -12.042524061169795 -0.2283946620833629 1 0 0
745 105 1 -1.1128 2.248100782156964 -1.0137698319908552 -0.8660292621567581 0 -1 0
252 0 5 0 3.764461180518448 -9.377440586224168 -11.10661020175605 -2 0 0
317 0 5 0 3.7673072109066403 -7.348786532868655 -9.11735395171271 -2 0 0
1104 224 2 0.5564 4.532399792574516 -7.895637618070231 -4.750494047424232 0 0 0
1103 224 2 0.5564 4.00694821768083 -6.95291189267974 -3.6888605520680904 0 0 0
1279 283 1 -1.1128 4.258287198801697 -9.471941953339865 -1.744788496052035 0 0 0
1281 283 2 0.5564 3.882961680438607 -9.007638528221838 -2.492977521937458 0 0 0
305 0 5 0 3.7937829597854567 -11.386088491272613 -9.119579309346621 -2 0 0
249 0 5 0 3.6633301502998155 -11.380553269293259 -13.017638536099014 -2 0 0
273 0 5 0 3.664926734692221 -7.334380384397526 -13.112904054265705 -2 0 0
1401 323 2 0.5564 -2.2085793426223037 -8.811203481725714 -0.45291735663766103 0 -1 0
276 0 5 0 3.7076620504725684 -5.302064604916869 -11.141607489746493 -2 0 0
9 0 5 0 3.6827321814482574 -3.3124185064855367 -13.190565501157177 -2 -1 0
862 144 1 -1.1128 9.03760076166384 -11.130861640817052 -0.19968048058747323 1 0 0
515 28 2 0.5564 2.0709498923531973 -5.852633025681692 -0.11520352374194665 0 -1 0
746 105 2 0.5564 2.8698957252938135 -1.6413792111673235 -0.49763996845793396 0 -1 0
284 0 5 0 11.772491311561549 -5.23510634181116 -11.094826172391244 -2 0 0
910 160 1 -1.1128 11.77677769125289 -9.195219269117443 -6.6756726791593834 -2 0 0
309 0 5 0 11.74839556955771 -11.372331884383426 -9.03261744535813 -2 0 0
257 0 5 0 11.73652322686392 -11.327361651827143 -13.225811134356162 -2 0 0
321 0 5 0 11.796058763594077 -7.314533153127436 -9.16935912200704 -2 0 0
281 0 5 0 11.723360294135624 -7.179355954947058 -13.193560491171517 -2 0 0
933 167 2 0.5564 11.739954658068273 -5.47337952513559 -5.870435894316839 -2 0 0
81 0 5 0 11.740046990728272 -3.2579867501105304 -9.185382881613302 -2 -1 0
17 0 5 0 11.765017012271665 -3.272549963957589 -13.162383360254767 -2 -1 0
659 76 2 0.5564 10.08939435656015 -6.218346627656575 -0.8094852024657648 0 -1 0
448 6 1 -1.1128 11.703762779113067 -1.1829098175242896 -6.637511159358166 -2 -1 0
20 0 5 0 11.750660236427938 -1.2848783963347765 -11.19139551984167 -2 -1 0
1162 244 1 -1.1128 9.868195018105393 -2.7395019887559906 -0.10075754002662393 0 -1 0
908 159 2 0.5564 10.438510421397622 -10.689960389522762 -6.800897111043872 -2 0 0
779 116 2 0.5564 8.222910502111496 -4.998599105127995 -0.6225172714863555 0 -1 0
756 108 2 0.5564 -1.5204729411910962 -6.4161589276986595 -0.318699195077636 -1 -1 0
931 167 1 -1.1128 11.707332118925512 -5.231173048893054 -6.795910563868568 -2 0 0
597 55 2 0.5564 5.089381498708361 -2.4254819757182644 -0.4626308089923715 -1 -1 0
1300 290 1 -1.1128 9.159930468182347 -0.030937343857845516 -3.92955441879605 0 -1 0
275 0 5 0 5.731460165894245 -7.297726534806759 -11.083205965552326 -2 0 0
622 64 1 -1.1128 11.857009815475324 -0.9569638769891329 -0.004584867979192355 -2 -1 0
1033 201 1 -1.1128 9.805652287447888 -3.319881632163695 -6.577203259690853 -2 0 0
1094 221 2 0.5564 5.3706989285828906 -1.2110080429466505 -3.983688542553931 -1 0 0
510 26 2 0.5564 7.3118950100004625 -0.38988933756528166 -6.919010833107493 -2 -1 0
1038 202 2 0.5564 10.572090747257347 -3.401294928533259 -4.7020572272533325 -1 -1 0
1042 204 1 -1.1128 0.17483302953986188 -0.351627350029438 -3.488740249719455 -1 -1 0
950 173 2 0.5564 7.058776739639703 -4.586939526979518 -6.6800257437323385 -2 0 0
906 158 2 0.5564 6.871862131217062 -10.304204165047569 -6.890666352873113 -2 0 0
911 160 2 0.5564 11.639226029317852 -9.125854362408502 -5.730950686722185 -2 0 0
1008 192 2 0.5564 11.62947916340649 -9.183527385956884 -3.2361428855467946 -2 0 0
260 0 5 0 11.698891613651755 -9.306601559471341 -11.168146057323796 -2 0 0
1368 312 2 0.5564 11.173855790793406 -6.804244016173344 -4.469737081225292 -1 0 0
592 54 1 -1.1128 7.4649870757430286 -5.554259063053429 -3.8316270656910336 -1 -1 0
1010 193 2 0.5564 6.4522108112567444 -11.272668112358554 -3.874379536204116 -1 0 0
1463 0 3 1.1 6.216466153683767 -3.3752993756164678 -2.7798200116905716 -1 -1 0
596 55 2 0.5564 6.106739787754702 -1.4594062487318142 -1.03146749660479 -1 -1 0
594 54 2 0.5564 6.529778128931786 -5.600082469861974 -3.6328391294762756 -1 -1 0
1199 256 2 0.5564 4.013742838350711 -11.20060278432359 -4.866738915482523 -1 0 0
855 141 2 0.5564 10.039239413003564 -11.627531405953105 -3.249064613840782 0 0 0
663 77 2 0.5564 4.018074576337115 -5.430860012433667 -1.2047008292637036 0 -1 0
256 0 5 0 7.768056715049704 -9.286200066941632 -11.159306034587912 -2 0 0
306 0 5 0 5.812145797964819 -9.391091310966045 -9.069067905973972 -2 0 0
1093 221 1 -1.1128 5.847603095976171 -1.927361472397516 -4.402773503081843 -1 0 0
1006 192 1 -1.1128 11.268891649099743 -8.981030860896956 -4.099395241199698 -2 0 0
1294 288 1 -1.1128 8.562018371303848 -2.49096733646566 -2.732924067046913 0 -1 0
853 141 1 -1.1128 9.130968015348095 -11.438025010936187 -3.0137697602211415 0 0 0
1113 227 2 0.5564 5.600642215529693 -8.31719310823861 -1.44825273285532 0 -1 0
595 55 1 -1.1128 5.422867053661361 -2.07740519024866 -1.2895908497677155 -1 -1 0
905 158 2 0.5564 8.348212613429705 -10.07437430705328 -6.64682140988137 -2 0 0
1031 200 2 0.5564 4.099798007928578 -9.90531503695049 -7.178342867809195 -2 0 0
864 144 2 0.5564 9.117108792397197 -11.143507967729994 -1.1534884768568239 1 0 0
1095 221 2 0.5564 6.410210844926229 -1.496884471155374 -5.046506395853034 -1 0 0
1009 193 1 -1.1128 6.01004452262672 -10.452338939353435 -3.655787436736701 -1 0 0
750 106 2 0.5564 9.614737176051054 -7.989119582978738 -2.000559694647321 0 -1 0
251 0 5 0 5.701223713665527 -11.337125769863015 -11.158226182810427 -2 0 0
901 157 1 -1.1128 5.663893758752677 -11.756374463394964 -6.695871681301424 -2 0 0
945 171 2 0.5564 3.871597911212144 -5.1644455747128815 -5.319770876142969 -2 0 0
14 0 5 0 9.726583136127301 -1.1875407289761524 -13.199138540370662 -2 -1 0
1280 283 2 0.5564 4.640916483275714 -10.264371447984553 -2.1214603290461373 0 0 0
1111 227 1 -1.1128 6.392682121024378 -7.817156451470831 -1.2511033979742316 0 -1 0
904 158 1 -1.1128 7.497082751830543 -9.638510857857847 -6.603993394113473 -2 0 0
951 173 2 0.5564 7.825758462604291 -5.071179821941217 -5.467941964621428 -2 0 0
985 185 1 -1.1128 5.357534029977983 -7.497830827750477 -6.439072659747269 -2 0 0
250 0 5 0 5.69885637040929 -9.357966200327313 -13.199531634676413 -2 0 0
932 167 2 0.5564 10.990325037846182 -4.59965809250099 -6.853575706118515 -2 0 0
1007 192 2 0.5564 10.32809321997486 -8.886584067343613 -3.950367770615964 -2 0 0
780 116 2 0.5564 6.944992633705437 -5.724865255722068 -0.9849475397082837 0 -1 0
318 0 5 0 5.719531839421264 -5.255281466279054 -9.077676110132805 -2 0 0
749 106 2 0.5564 11.093708174196502 -7.860739351811863 -1.7038142807954344 0 -1 0
11 0 5 0 5.7155475441738846 -3.268478034279218 -11.145087915496909 -2 -1 0
1296 288 2 0.5564 8.79066798062345 -2.3752126543835264 -1.8106704013879766 0 -1 0
1295 288 2 0.5564 8.65175618750122 -1.617443711218589 -3.113890981450587 0 -1 0
1011 193 2 0.5564 6.68038367716702 -9.779411077117661 -3.774301072506039 -1 0 0
1037 202 2 0.5564 10.093601810041918 -3.33812206595725 -3.267151742297371 -1 -1 0
528 32 2 0.5564 5.0255582985890515 -0.19580055810393387 -6.87856464270348 -2 -1 0
930 166 2 0.5564 10.2165284244757 -6.512726345954894 -6.841170864930206 -2 0 0
778 116 1 -1.1128 7.324610592130918 -4.848775976546018 -0.9172070237765209 0 -1 0
1469 0 3 1.1 7.723283863802724 -7.694644454464812 -5.671536831252224 -2 0 0
1030 200 1 -1.1128 3.4406680794412847 -9.377469908532865 -6.72761151651259 -2 0 0
307 0 5 0 7.729985209793756 -11.384222145383855 -9.060721223277286 -2 0 0
79 0 5 0 7.7347926255082635 -3.230980210826967 -9.15868731292396 -2 -1 0
949 173 1 -1.1128 7.77326050822509 -5.167889077647532 -6.418795939941425 -2 0 0
439 3 1 -1.1128 5.7755817546901 -3.3627423540127355 -6.783857629873094 -2 -1 0
929 166 2 0.5564 10.547240587159424 -7.959532130771046 -6.54237460433254 -2 0 0
748 106 1 -1.1128 10.239178465128342 -7.927462971298087 -1.2777162981528052 0 -1 0
1034 201 2 0.5564 9.631462494643303 -2.3864607048401987 -6.698097139822026 -2 0 0
854 141 2 0.5564 8.935399045998826 -10.612587345528201 -3.4572106520742594 0 0 0
274 0 5 0 5.740146109981371 -5.305345059943582 -13.184835536086903 -2 0 0
1479 0 4 -1.1 8.422981513198465 -8.681018766928196 -3.451983290625708 -2 -1 0
319 0 5 0 7.680129957077838 -7.308433467530742 -9.023183282724998 -2 0 0
928 166 1 -1.1128 9.837232003323045 -7.319495851663295 -6.492617229361759 -2 0 0
280 0 5 0 7.706022625101399 -5.295952952627528 -11.141169275093871 -2 0 0
986 185 2 0.5564 4.660924277548174 -8.13280542537026 -6.605734128637639 -2 0 0
508 26 1 -1.1128 7.541457139031886 -1.2243581569684576 -6.510115519067301 -2 -1 0
277 0 5 0 7.7189659372656205 -7.301590279604966 -13.234561930759606 -2 0 0
509 26 2 0.5564 7.298841869890972 -1.884529108883626 -7.159379213000887 -2 -1 0
13 0 5 0 7.675318608007931 -3.157054245010592 -13.153719457923131 -2 -1 0
253 0 5 0 7.697308642340959 -11.319141377696603 -13.091394025224417 -2 0 0
1486 0 4 -1.1 4.491092720393272 -5.013432471598969 -3.347886862342469 -1 0 0
16 0 5 0 7.791090370907038 -1.1396426093649341 -11.144047932822945 -2 -1 0
1035 201 2 0.5564 8.948382856598045 -3.7370327434799204 -6.662684904426059 -2 0 0
10 0 5 0 5.659376471589672 -1.2131259678026398 -13.124685155197 -2 -1 0
279 0 5 0 9.736240467949528 -7.315810700157204 -11.132004708761746 -2 0 0
308 0 5 0 9.766562927553068 -9.364403523632085 -9.153088156716988 -2 0 0
255 0 5 0 9.780264818852556 -11.315564321800014 -11.130570116854045 -2 0 0
907 159 1 -1.1128 9.751781843233754 -11.267766366269424 -6.468067726337427 -2 0 0
320 0 5 0 9.747414076389092 -5.344123629747156 -9.241637202061042 -2 0 0
15 0 5 0 9.764458395727736 -3.2539296571494303 -11.178769234399024 -2 -1 0
78 0 5 0 5.710518593246766 -1.275063686762549 -9.17509490287324 -2 -1 0
80 0 5 0 9.693650688202702 -1.2557669154609676 -9.157925224047574 -2 -1 0
943 171 1 -1.1128 3.696471936443972 -5.186472783056866 -6.260556648120942 -2 0 0
441 3 2 0.5564 5.494456421554227 -2.7589951155783803 -6.096332543474032 -2 -1 0
1112 227 2 0.5564 7.031947749953152 -8.115200867757617 -1.8982046032297883 0 -1 0
987 185 2 0.5564 4.925206670629668 -6.645954119069377 -6.4993182792543145 -2 0 0
593 54 2 0.5564 7.8702806226453275 -6.1717919276919515 -3.2228388576461966 -1 -1 0
440 3 2 0.5564 5.008568447538618 -3.9106045288360556 -6.95050113455701 -2 -1 0
254 0 5 0 9.691777904036485 -9.290097741348122 -13.35203376546724 -2 0 0
1290 286 2 0.5564 1.947141169717939 -11.905228838195054 -0.33880605014564846 1 0 0
1243 271 1 -1.1128 -5.058803913337453 -2.5444260180043097 -0.41705595887404573 -1 -1 0
1278 282 2 0.5564 2.718627342017679 -9.616657841386438 -0.6128541386707845 0 0 0
591 53 2 0.5564 -8.7680393241589 -1.3180053487897396 -0.2057920182385348 1 -1 0
564 44 2 0.5564 -2.1006752961052184 -0.7765896326940046 -4.149925598070687 -1 -1 0
735 101 2 0.5564 -4.325052194813308 -0.2023453140208012 -3.554228830058416 0 -1 0