LAMMPS data file via write_data, version 2 Aug 2023, timestep = 50000, units = real

3150 atoms
8 atom types
2100 bonds
6 bond types
1050 angles
9 angle types
0 dihedrals
3 dihedral types

-12.128790601188626 60.64395300594313 xlo xhi
-12.128790601188626 12.128790601188626 ylo yhi
-12.128790601188626 12.128790601188626 zlo zhi

Masses

1 15.9994
2 1.008
3 12.011
4 15.9994
5 1.008
6 15.9994
7 15.9994
8 1.008

Pair Coeffs # lj/cut/coul/long

1 0.119432 3.40025
2 0 0
3 0.252656 2.84916
4 0.0663016 3.58118
5 0.0282937 2.37341
6 0 0
7 0 0
8 0.119497 3.1

Bond Coeffs # harmonic

1 442.161 0.972
2 1109.29 1.12
3 399.792 1.43
4 400.034 1.53
5 179.254 0.971
6 155.354 1.42

Angle Coeffs # harmonic

1 47.5559 103
2 30.1731 109.5
3 47.694 109.5
4 55.1139 111
5 65.472 111.3
6 54.9931 110.3
7 55.0234 111.4
8 180.46 109
9 30.1731 110

Dihedral Coeffs # harmonic

1 0.301147 1 3
2 1.41491 1 3
3 0 1 1

Atoms # full

334 112 1 -0.826 -7.514072142671343 -4.535976008711916 -2.7820941724740056 0 1 0
335 112 2 0.413 -7.535710230400423 -4.960834666207255 -3.6684199641131947 0 1 0
13 5 1 -0.826 -9.740605132527996 -3.084456475757399 -5.288733878289916 0 1 0
336 112 2 0.413 -6.743053672936707 -3.9455053072036677 -2.817707762901989 0 1 0
666 222 2 0.413 -10.11685488212898 -10.518978762019955 -11.035364143430193 0 0 0
876 292 2 0.413 -6.665784193621412 10.162712255912147 -7.624044699898853 0 -1 1
664 222 1 -0.826 -9.121994846469997 -10.799905165031978 -11.040341294029083 0 0 0
665 222 2 0.413 -9.104548181654886 -10.846760442707073 -10.034900062472067 0 0 0
475 159 1 -0.826 -5.604816594442398 -2.9766465711642134 -4.892224823589665 0 1 1
397 133 1 -0.826 15.728341024437293 -10.520287725296994 -7.462680533996775 0 1 1
771 257 2 0.413 -8.315149898606524 -7.65762359461219 -8.936251196254487 0 1 0
439 147 1 -0.826 -4.847648905258153 -10.896264154744673 -8.58843005391296 0 0 1
441 147 2 0.413 -4.79517408057235 -10.135332202570117 -7.917477810807291 0 0 1
398 133 2 0.413 16.50928604608175 -10.425603222648897 -6.831063031612626 0 1 1
862 288 1 -0.826 -4.6200649991409986 -8.84554358341489 -6.514033225028843 0 0 0
769 257 1 -0.826 -7.504617553063026 -7.525833844583779 -8.413490746453629 0 1 0
770 257 2 0.413 -7.299666499707847 -8.459282671199649 -8.47782029278337 0 1 0
919 307 1 -0.826 17.86614335749952 -5.695488007247114 -12.10123330813302 0 -1 0
921 307 2 0.413 17.098077225103253 -6.241724505878828 -11.751686698314213 0 -1 0
655 219 1 -0.826 16.408251401081394 -4.734180399116017 -9.505540387903944 0 1 0
928 310 1 -0.826 -11.286488262679239 -6.07654598610614 -6.853488676286093 0 1 0
440 147 2 0.413 -5.073019648166753 -11.622148384914066 -8.047780215324465 0 0 1
399 133 2 0.413 15.131829215320353 -9.818199981636166 -7.130638341491121 0 1 1
146 49 2 0.413 -9.860652204133931 -6.1561675938279805 -5.423116219916555 0 -1 1
147 49 2 0.413 -8.97887927680648 -7.15454566246073 -4.871689312982873 0 -1 1
145 49 1 -0.826 -9.017123008547872 -6.147187831567518 -4.9193780554533895 0 -1 1
897 299 2 0.413 -9.277009531957322 -7.660465442031816 -11.157891974949797 0 0 0
62 21 2 0.413 -5.4157862789340365 -6.713939799899556 -9.345113195072278 0 1 0
61 21 1 -0.826 -4.697047914080798 -6.212681569849501 -9.043217318382682 0 1 0
63 21 2 0.413 -4.550381392522115 -6.631443747290007 -8.17347540929434 0 1 0
14 5 2 0.413 -9.864551151537407 -3.0737232325781285 -6.281507643132371 0 1 0
656 219 2 0.413 16.431067904604532 -5.568081518845339 -9.007327106061528 0 1 0
657 219 2 0.413 16.707598327862332 -4.968466156856813 -10.37527056721777 0 1 0
863 288 2 0.413 -5.239754503800921 -8.948414349933005 -5.760981688933297 0 0 0
864 288 2 0.413 -3.8063793933218513 -8.527478149163569 -6.072745541304496 0 0 0
246 82 2 0.413 -10.003472479647566 -4.127208026971374 -11.10745862742183 0 0 0
70 24 1 -0.826 -11.118722047969115 -7.731852468215671 -10.089551570846396 0 0 1
72 24 2 0.413 -11.224797065005585 -6.746020279089213 -10.27010703060679 0 0 1
584 195 2 0.413 44.79670400538405 -5.160470137299092 -10.56171148122377 -1 0 1
583 195 1 -0.826 44.828732677417904 -4.746877382370374 -11.482388308461731 -1 0 1
144 48 2 0.413 1.6182018015851956 -6.849079402938673 -9.002605567760698 0 0 1
893 298 2 0.413 2.5175676734745327 -9.26337212328265 -10.629741527601198 0 -1 1
143 48 2 0.413 2.6035835703450587 -5.833631153403045 -8.715463071610653 0 0 1
142 48 1 -0.826 2.1412072566001754 -6.212665923611928 -9.525698236462521 0 0 1
952 318 1 -0.826 20.648598608342155 -3.368865371072463 -6.963675147153814 0 0 0
954 318 2 0.413 21.532027125915626 -2.912117972264312 -7.003459718171883 0 0 0
902 301 2 0.413 1.3057767876457476 -9.252888031697637 -8.271812545976474 0 2 1
901 301 1 -0.826 0.9522986015414343 -9.191367355463385 -9.203828918445414 0 2 1
203 68 2 0.413 1.653094684312311 -10.939147398860507 11.968304086724117 0 1 -1
585 195 2 0.413 43.92722225816189 -4.443965634645788 -11.722302997747766 -1 0 1
903 301 2 0.413 0.04733436904963284 -9.515283685819625 -9.044621252673076 0 2 1
953 318 2 0.413 20.91818891213843 -4.1549528069878745 -7.484924976574552 0 0 0
204 68 2 0.413 0.25761779908496507 -11.112743733841262 -11.833869833312201 0 1 0
202 68 1 -0.826 0.7305977282264706 -11.057996712474973 11.562050818960273 0 1 -1
225 75 2 0.413 -1.2665734396969377 -6.979221100988379 -5.75490738760518 0 1 0
223 75 1 -0.826 -1.9483644670107765 -7.002469873823088 -6.38238952220103 0 1 0
224 75 2 0.413 -1.9223353920186597 -6.046994691251474 -6.643499688684696 0 1 0
367 123 1 -0.826 47.58869540046512 -6.700624748006387 11.452123239901248 -1 1 0
368 123 2 0.413 47.38981119944247 -6.9987430305650875 -11.92191425296131 -1 1 1
892 298 1 -0.826 3.2565696992098854 -9.014731655832222 -11.220590045848867 0 -1 1
27 9 2 0.413 21.573521496373488 -8.625628467906214 -11.093370100662254 0 0 0
25 9 1 -0.826 21.889287187165156 -8.034306909571328 -10.367962420002678 0 0 0
26 9 2 0.413 21.319118933978586 -8.288374687957297 -9.603557678341458 0 0 0
369 123 2 0.413 47.661528977663124 -7.616552154045806 10.97029183978567 -1 1 0
355 119 1 -0.826 51.52372452225713 -5.9067546323835 11.867542475493941 -1 -1 -1
731 244 2 0.413 6.6147469301534905 -7.076924843917464 -8.674787345359704 0 1 -1
637 213 1 -0.826 1.8729000534516516 -6.14715000305815 -5.538831731358064 0 0 0
455 152 2 0.413 0.23295817535820618 -4.384456637481505 -11.802811101174576 0 0 -1
456 152 2 0.413 -1.1887278755480164 -3.9384493611553673 -11.67399138260673 0 0 -1
454 152 1 -0.826 -0.3429179317615709 -3.693188239620616 -11.37925799823033 0 0 -1
575 192 2 0.413 -1.0701143470304473 -11.84799343786932 -6.109645609831553 0 1 -1
189 63 2 0.413 25.54121070225318 -11.269118348595887 -6.6977437641029285 0 0 0
183 61 2 0.413 1.8694894598147656 11.488478874883693 -3.3527410990526363 0 0 -1
853 285 1 -0.826 26.005878769515846 -9.462131743118814 -6.164537587397994 0 1 -1
854 285 2 0.413 25.868147976475054 -9.601158222431033 -5.216783345587679 0 1 -1
855 285 2 0.413 26.881352166872816 -8.99247521017547 -6.194562175298472 0 1 -1
638 213 2 0.413 2.766584605240933 -6.513074104683462 -5.535193223018126 0 0 0
639 213 2 0.413 1.4096132382115982 -6.452971694706097 -4.726182399892389 0 0 0
357 119 2 0.413 51.249077386616 -6.447965112052749 -11.578932369651222 -1 -1 0
930 310 2 0.413 -11.690054397879393 -6.9416196706529405 -7.159670829375381 0 1 0
929 310 2 0.413 60.62246454850766 -5.55597802182691 -6.728118331101846 -1 1 0
1029 343 2 0.413 59.407636300954394 -3.981494820688738 -9.516155088158694 -1 0 0
894 298 2 0.413 3.9458935621623468 -9.070893597623524 -10.527016037535018 0 -1 1
660 220 2 0.413 32.559721004611 -8.54037942671062 -5.527823924778321 0 1 0
732 244 2 0.413 5.868760248909577 -6.128490724530213 -7.751093712976925 0 1 -1
730 244 1 -0.826 6.559467595161756 -6.83113949058157 -7.716588003289036 0 1 -1
658 220 1 -0.826 33.179005394650986 -9.095273985254591 -5.993704494636737 0 1 0
835 279 1 -0.826 6.917852841194158 -6.547081996502629 -10.891855483262944 0 0 1
77 26 2 0.413 5.269882060347513 -10.62229614827875 -9.078666624338071 0 -1 0
76 26 1 -0.826 5.405895326081463 -9.755374221874483 -9.538182180049125 0 -1 0
78 26 2 0.413 6.135651147075055 -9.448835162122045 -8.9700807239765 0 -1 0
837 279 2 0.413 7.756865336882729 -6.954306832485243 -11.186320467369745 0 0 1
836 279 2 0.413 6.296909183720647 -7.048349185935187 -11.515830984633833 0 0 1
132 44 2 0.413 55.39309615255591 -4.4920056906641435 -9.622605726299739 -1 1 1
130 44 1 -0.826 56.19720909953888 -4.113771595847801 -9.337034369941414 -1 1 1
659 220 2 0.413 33.32476794705074 -9.729510990747464 -5.2844732005591055 0 1 0
297 99 2 0.413 11.295672587114527 12.042036723652208 -6.397204038900289 0 0 0
131 44 2 0.413 56.805621837981576 -4.460412276595417 -10.061826932764552 -1 1 1
24 8 2 0.413 4.358584565841273 12.014469100524888 -7.031419354068759 0 -1 0
23 8 2 0.413 4.692242290549011 11.249721852662397 -8.317424276217581 0 -1 0
22 8 1 -0.826 4.494872495123023 -12.091428429041782 -8.024345466879101 0 0 0
603 201 2 0.413 56.91641541419861 -5.963619648201875 -6.4576958858942595 -1 0 0
913 305 1 -0.826 54.21366578337188 -8.28659723842619 -5.06246509955826 -1 0 1
245 82 2 0.413 -11.338261994851782 -4.319221215761025 -11.730724876329381 0 0 0
244 82 1 -0.826 -10.843694433004448 -4.629834353834521 -10.982602570458301 0 0 0
601 201 1 -0.826 57.27692862689733 -5.0529973351184285 -6.519039727635394 -1 0 0
777 259 2 0.413 11.331325612597237 -9.25046740640143 -8.164900796583257 0 0 0
775 259 1 -0.826 11.093107644417664 -8.40224889291466 -7.831600063995093 0 0 0
776 259 2 0.413 10.388040613199767 -8.719998010809856 -7.1718056153535406 0 0 0
956 319 2 0.413 -10.207109392181945 -9.68945045177662 -4.645611602730341 0 0 1
602 201 2 0.413 56.90634793973643 -4.725075583520035 -7.3663482191043705 -1 0 0
955 319 1 -0.826 -10.076477196209602 -9.027443348733359 -5.31432014389754 0 0 1
915 305 2 0.413 54.146442342779444 -7.901820419748324 -5.994072905046114 -1 0 1
794 265 2 0.413 36.12994698101123 -11.811520897562081 -10.45973942714897 -1 0 0
477 159 2 0.413 -5.052443529084613 -2.8190701696875458 -4.080068583985593 0 1 1
476 159 2 0.413 -4.841929663818308 -3.045559756997548 -5.569898473772078 0 1 1
94 32 1 -0.826 -10.796750042947428 0.16910490244372234 -11.023137324844289 0 0 0
96 32 2 0.413 -10.623489362584024 1.0990261140202353 -10.846032905418845 0 0 0
434 145 2 0.413 16.162299221891036 3.4890792390392527 -8.558085285637086 0 0 0
266 89 2 0.413 18.220084080696374 3.844394680004932 -10.659008340813845 0 -1 0
265 89 1 -0.826 17.582317720513934 3.953245008940101 -9.918579527282864 0 -1 0
433 145 1 -0.826 15.639155570124743 3.222048945536505 -7.748742519426332 0 0 0
586 196 1 -0.826 13.772500315414096 4.577223622395486 -5.5406971723147045 0 1 0
588 196 2 0.413 13.342567776034508 3.888087278182521 -5.004623343581275 0 1 0
693 231 2 0.413 16.702083211197532 4.782515043006153 -6.377401072192306 0 0 1
1005 335 2 0.413 15.81299843743346 -0.7505191941924778 -8.268147054411225 0 0 1
1003 335 1 -0.826 15.474037932925492 0.1074246841590547 -7.9901042091133085 0 0 1
1004 335 2 0.413 14.460912684770976 -0.08721317848927157 -7.92290866361752 0 0 1
435 145 2 0.413 15.785128741956356 2.2235904554435457 -7.765207950063846 0 0 0
587 196 2 0.413 14.397914115568494 4.123653481701297 -6.185178658019469 0 1 0
390 130 2 0.413 -10.088132621470574 -1.1286082746138266 12.034122038326963 0 0 0
282 94 2 0.413 -11.082709407564924 2.841661055285911 -9.423125373700096 0 -1 1
389 130 2 0.413 -9.968187875186178 -0.9919802149052686 10.551669774011781 0 0 0
388 130 1 -0.826 -9.816739079117646 -1.7101427219085892 11.259297488649306 0 0 0
267 89 2 0.413 18.30644034970628 4.014137770957607 -9.227276338731503 0 -1 0
689 230 2 0.413 -6.014397409067258 -2.3975311953913145 -10.111334193457392 0 0 0
301 101 1 -0.826 -4.548505569618972 3.1053197643847383 -4.819855376387725 0 1 1
646 216 1 -0.826 -5.981978486255761 1.308362840469627 -8.093112871536318 0 0 0
661 221 1 -0.826 -10.081550077734665 -3.079277269566443 -8.320412405622482 0 0 0
662 221 2 0.413 -9.49926659074808 -3.7203841789363725 -8.745131997534045 0 0 0
663 221 2 0.413 -10.97974635354052 -3.5841198692408405 -8.441480802635773 0 0 0
343 115 1 -0.826 45.8733531859858 3.666968446227118 -8.600658779626642 -1 0 1
345 115 2 0.413 45.41247173651672 3.37143061464843 -7.798931029073721 -1 0 1
280 94 1 -0.826 -10.707345390913186 3.2361862287318033 -10.240344073048542 0 -1 1
976 326 1 -0.826 -4.196147021984804 0.22434770723967823 -5.485280166796787 0 0 -1
95 32 2 0.413 -11.148011323574911 -0.1093875707371268 -10.149353928913353 0 0 0
71 24 2 0.413 -11.982022671918427 -8.064155708433868 -9.621001746918852 0 0 1
702 234 2 0.413 16.59215979520874 -1.266137630637182 11.751665558986595 0 -1 -1
227 76 2 0.413 51.05927472793565 -1.1922685395324422 -8.416183501737938 -1 0 1
226 76 1 -0.826 51.00319275380728 -2.1470158656053755 -8.236593339643889 -1 0 1
228 76 2 0.413 50.09155865854577 -2.2335132002636513 -8.483169593861959 -1 0 1
117 39 2 0.413 -1.5925027633748634 -5.569444785371131 -9.072601594674872 0 0 0
690 230 2 0.413 -4.5554590241803306 -2.3559665920152124 -10.429852302662166 0 0 0
688 230 1 -0.826 -5.409660644357684 -1.799844810866368 -10.563103160932 0 0 0
648 216 2 0.413 -5.527546081065636 0.883379784675439 -7.303539623719806 0 0 0
647 216 2 0.413 -6.837080537523224 0.8688384964171849 -8.197001801165413 0 0 0
306 102 2 0.413 43.09654775141041 -2.2597175852665465 -7.913831656546577 -1 1 -1
344 115 2 0.413 46.81977186500425 3.3964482916967143 -8.3391582487715 -1 0 1
305 102 2 0.413 42.22177394040831 -2.9883594102984077 -7.0541612891917325 -1 1 -1
304 102 1 -0.826 42.167830879786436 -2.312722698744839 -7.727478257487466 -1 1 -1
527 176 2 0.413 -0.7689654903426231 -1.1175553412125598 -7.431883808185666 0 0 0
526 176 1 -0.826 -1.1373549203001865 -0.8563734481397685 -6.55593209918989 0 0 0
528 176 2 0.413 -0.5763043562199641 -0.12036890934446198 -6.235721456527924 0 0 0
421 141 1 -0.826 47.671454639079045 -1.496079566793819 -9.307722067280757 -1 0 0
423 141 2 0.413 47.789852409836925 -2.0298963910092898 -10.098386462607937 -1 0 0
422 141 2 0.413 47.26711414605239 -0.7858815776250392 -9.751481615082117 -1 0 0
324 108 2 0.413 -1.5934632282548264 -5.333548843967413 8.634024990874313 0 0 0
116 39 2 0.413 -0.36257870697413885 -5.0201750372467675 -8.731525835518386 0 0 0
8 3 2 0.413 22.774962644070456 2.4343436084316448 -5.125642418979311 0 0 -1
7 3 1 -0.826 23.237683038952902 2.7420400376070138 -5.9782600978363085 0 0 -1
9 3 2 0.413 24.09294318548507 3.066291863126784 -5.605278147883084 0 0 -1
789 263 2 0.413 1.7996216953849657 2.8238934294529177 -7.1368241110987185 0 0 -1
787 263 1 -0.826 1.5738207730896647 2.189596389827054 -7.889821280856744 0 0 -1
788 263 2 0.413 0.575316241248478 2.1493946073911765 -7.684396510463486 0 0 -1
284 95 2 0.413 -0.07719025650601807 6.039372960386057 -6.448406167269265 0 0 0
644 215 2 0.413 51.47233862039056 1.5289672568625292 -9.876880204027454 -1 -1 1
115 39 1 -0.826 -1.2111472578420788 -5.081153075865225 -8.31051582246296 0 0 0
977 326 2 0.413 -3.4664174792965525 -0.2446632536017539 -5.8507795649095975 0 0 -1
303 101 2 0.413 -4.791174370533713 2.2393399903711426 -5.181728499719082 0 1 1
931 311 1 -0.826 26.26403051989356 2.9407544920444053 -4.935350883869232 -1 0 0
40 14 1 -0.826 22.924789113283317 0.5405171658308259 11.622531215410177 0 0 -2
41 14 2 0.413 22.152482798627638 1.149686107626211 11.687727238690016 0 0 -2
947 316 2 0.413 45.80020487122995 3.6518955279948244 -11.335195283867414 -1 0 1
946 316 1 -0.826 45.55045506450328 3.084005340928808 -12.058819239764869 -1 0 1
948 316 2 0.413 44.693813896548434 3.610629932752035 12.00910412278018 -1 0 0
868 290 1 -0.826 22.558374505325357 5.553179802202141 -10.798903340759235 0 0 0
1027 343 1 -0.826 59.65538495942949 -3.708459101547982 -8.62528846197073 -1 0 0
126 42 2 0.413 58.2314130011782 -4.073452001206462 11.690402235378627 -1 1 0
124 42 1 -0.826 58.284058629648115 -3.409541716944908 -11.816083502767476 -1 1 1
125 42 2 0.413 57.33659799709801 -3.1830051174308593 -11.959181684618105 -1 1 1
1028 343 2 0.413 58.781657121843146 -3.8914861057483296 -8.170982544172153 -1 0 0
109 37 1 -0.826 3.8346766063974034 -3.3338159033895334 -4.633819704285376 0 0 1
154 52 1 -0.826 -12.052289600550361 -0.3111439715320934 -8.339446989355398 0 0 0
155 52 2 0.413 59.77178099716424 -0.3405695116018528 -8.185023096209711 -1 0 0
35 12 2 0.413 58.62653206587372 2.0345919875464524 -9.731714068720162 -1 -1 0
943 315 1 -0.826 55.53008091212267 3.179381155859774 -6.4251476344669065 -1 0 0
944 315 2 0.413 55.14486515303373 2.7851302377640845 -5.606761674590499 -1 0 0
705 235 2 0.413 55.727578923849116 5.667470660491322 -5.585142911342199 -1 0 1
156 52 2 0.413 -11.780112716153448 -1.3033903659615973 -8.327847936176244 0 0 0
738 246 2 0.413 3.725453100162225 -3.7196039934048777 -7.921627249623427 0 -1 1
933 311 2 0.413 26.75175634426563 3.799281894478405 -4.946025155189248 -1 0 0
538 180 1 -0.826 6.165991908643797 -1.761705795122058 -8.786660062169375 0 0 1
539 180 2 0.413 6.876942843024267 -2.4577214011018054 -8.86818192571128 0 0 1
540 180 2 0.413 5.475361399467388 -2.392699707409669 -8.492898677810055 0 0 1
737 246 2 0.413 4.719367209338451 -3.9587878886294803 -6.988284948680366 0 -1 1
736 246 1 -0.826 4.539149520559786 -4.259789266731026 -7.85046394657342 0 -1 1
36 12 2 0.413 58.34144347763352 3.53836101713091 -9.51235829741838 -1 -1 0
34 12 1 -0.826 58.363561090507105 2.877842586749054 -10.213438365494978 -1 -1 0
263 88 2 0.413 7.977844691453452 -0.57282071412682 -4.800742418007637 0 0 1
262 88 1 -0.826 7.410064665801265 0.08577258430503498 -5.27812175634239 0 0 1
971 324 2 0.413 58.253442719717626 1.1731585183565798 -6.933069540598673 -1 -1 1
970 324 1 -0.826 57.80608267139959 0.44226648017214387 -7.490389212235986 -1 -1 1
236 79 2 0.413 28.856878971219288 1.0527942190548707 -8.56446203995877 -1 0 1
972 324 2 0.413 56.89566173659341 0.8499083982710118 -7.780901808824439 -1 -1 1
945 315 2 0.413 54.91264617988437 2.806907402768415 -7.10226480673409 -1 0 0
264 88 2 0.413 7.876574649970284 0.13591884603729554 -6.128363742484574 0 0 1
342 114 2 0.413 5.686883163663325 2.0247165087977983 -2.8830610414460125 0 0 1
237 79 2 0.413 29.64295062922705 0.05125470745154459 -7.930822217195676 -1 0 1
235 79 1 -0.826 29.610454264359063 1.0118852458705803 -7.955954297805572 -1 0 1
810 270 2 0.413 8.4012307141634 3.13892527698421 -12.117506187512447 0 0 0
808 270 1 -0.826 7.576314822069918 3.1664638858461096 11.550819559021086 0 0 -1
827 276 2 0.413 33.11548335496062 -3.320782475910491 -5.211054951777072 0 1 0
828 276 2 0.413 32.445672638498216 -3.6084215395390338 -3.7952990794232218 0 1 0
826 276 1 -0.826 32.77854502659716 -2.8507750706673534 -4.347348513862104 0 1 0
329 110 2 0.413 -9.267015034988617 10.104829913893838 -4.51383563384309 0 0 1
874 292 1 -0.826 -6.268970245885939 11.015849391515246 -7.411300791825067 0 -1 1
875 292 2 0.413 -6.7016479676263625 11.222454178108098 -6.527769278913471 0 -1 1
190 64 1 -0.826 14.490100983350139 11.198967305741046 -7.998188526555364 0 -1 1
191 64 2 0.413 13.841929189449049 11.737896590938075 -8.609437072320986 0 -1 1
192 64 2 0.413 15.090733805460353 11.961452016740242 -7.808903123353552 0 -1 1
330 110 2 0.413 -9.14858825358069 10.302220549562023 -6.016581033339669 0 0 1
328 110 1 -0.826 -8.579532944821189 10.386342392679676 -5.15499700785908 0 0 1
692 231 2 0.413 17.99315047707604 4.667334417514539 -5.473389094116282 0 0 1
691 231 1 -0.826 17.163561904544707 5.1343176304311875 -5.58747897743984 0 0 1
619 207 1 -0.826 15.54235365582016 5.839870008602805 -9.035764069092178 0 0 1
621 207 2 0.413 16.328378172439884 5.48939955979084 -9.493857374233366 0 0 1
890 297 2 0.413 10.217255466799127 6.447569538902545 -3.460729434104273 0 0 1
543 181 2 0.413 11.478439115880196 9.631460465311172 -8.63358471953722 0 -1 0
1025 342 2 0.413 18.794939296356304 11.325014456858138 -9.334008869787858 0 0 1
620 207 2 0.413 14.787260841957602 5.200899048597144 -9.318350163509827 0 0 1
908 303 2 0.413 40.2258024196441 7.839427831278034 -8.23060584387834 -1 -1 1
907 303 1 -0.826 40.76746139563075 8.502207782618143 -8.67868476999293 -1 -1 1
909 303 2 0.413 40.06154364956683 8.91039811014284 -9.235341783836091 -1 -1 1
1026 342 2 0.413 19.038713360481935 9.863495460436997 -9.637359902978282 0 0 1
1024 342 1 -0.826 19.281794788924916 10.736360410613258 -10.04359633134915 0 0 1
281 94 2 0.413 -11.442732313393812 3.7636786650937033 -10.596581275801181 0 -1 1
830 277 2 0.413 11.747338814373432 6.654811181495592 -7.795547518289452 0 0 0
829 277 1 -0.826 11.3302099828432 6.75565435338266 -6.942990924423861 0 0 0
387 129 2 0.413 18.33283081419343 7.614240411077461 -8.111867415556901 0 0 1
385 129 1 -0.826 19.120954394787375 7.4317086998125035 -7.562491787426147 0 0 1
386 129 2 0.413 18.701119859270182 7.173430590241271 -6.738824677673179 0 0 1
642 214 2 0.413 -9.80784519270138 6.16524248830126 10.25232379620762 0 -1 1
559 187 1 -0.826 -8.86184725412354 7.337982328039743 -4.43758619229687 0 0 1
561 187 2 0.413 -9.125992248169691 6.573692772812198 -5.0187529510460465 0 0 1
560 187 2 0.413 -7.880759268772116 7.245314192907546 -4.512923904291135 0 0 1
684 228 2 0.413 -10.255166882157807 8.3993139183513 -3.819407838910637 0 0 0
682 228 1 -0.826 -10.896973781297005 9.08144211715345 -3.7046587782981835 0 0 0
683 228 2 0.413 -11.618126991802402 8.416599298761195 -3.5688876401856273 0 0 0
494 165 2 0.413 -3.2922778552156196 10.143587821053565 -5.367681261808046 0 0 0
272 91 2 0.413 10.157666245300337 9.466631975442272 -1.082362185199358 0 0 -1
831 277 2 0.413 12.089404558941542 6.485667719276275 -6.345191068915085 0 0 0
541 181 1 -0.826 12.259188244595535 9.164262599495679 -9.121800291938765 0 -1 0
803 268 2 0.413 -3.6820612185300874 5.059467855340014 -4.612339629840889 0 0 1
722 241 2 0.413 11.81758496958632 7.045082097348676 -9.850045912110298 0 -1 1
721 241 1 -0.826 11.886876078757982 6.088331409453474 -10.007073006036459 0 -1 1
161 54 2 0.413 21.882591937344564 10.293557311513442 -8.846283736872238 0 0 -1
160 54 1 -0.826 22.035577412931314 11.07287514349154 -9.469332585694978 0 0 -1
188 63 2 0.413 25.343811247099303 11.651851133919592 -6.031662488595809 0 -1 0
302 101 2 0.413 -3.690299360665014 2.784448430057502 -4.401023647904751 0 1 1
380 127 2 0.413 50.02326268430819 7.217074127998231 11.405791305225868 -1 0 -1
804 268 2 0.413 -2.5185213854027886 5.899740998680702 -5.060872754423048 0 0 1
493 165 1 -0.826 -3.5751310353145307 9.69714179110808 -4.6124583525367155 0 0 0
495 165 2 0.413 -2.8055939168060977 9.767619563324466 -3.9663137034782885 0 0 0
21 7 2 0.413 23.721482387092067 4.956082262062747 -2.6716928314586923 0 1 1
19 7 1 -0.826 24.24306184426255 4.198389328570183 -2.316946750925222 0 1 1
285 95 2 0.413 -0.6954135891990916 7.274536160821459 -5.689675554744126 0 0 0
283 95 1 -0.826 -0.9222511175452688 6.464623363886297 -6.202078143480149 0 0 0
20 7 2 0.413 24.187304960344207 4.481373020947579 -1.3757601969967794 0 1 1
925 309 1 -0.826 -0.1461892597582075 8.70564458057897 -4.432522822885527 0 -1 1
298 100 1 -0.826 21.75049796307703 8.78659136819358 -7.425777262284608 0 0 1
299 100 2 0.413 22.448645577606925 8.207619098998745 -7.194706003995286 0 0 1
300 100 2 0.413 20.963046983430928 8.18261552678361 -7.5151568995406635 0 0 1
574 192 1 -0.826 -2.0226131223721637 -11.992477250873412 -5.996644218212978 0 1 -1
576 192 2 0.413 -2.3664326093941224 -11.990345671263224 -6.861899227565829 0 1 -1
904 302 1 -0.826 0.6416215175280389 11.059911766672762 -9.617886985182473 0 0 0
905 302 2 0.413 -0.28681187380060713 11.1284523112948 -9.625821814465214 0 0 0
926 309 2 0.413 -0.11678470811233588 8.45830711738532 -3.489025540844004 0 -1 1
927 309 2 0.413 0.22806568943641992 9.57801007994566 -4.253822359530602 0 -1 1
162 54 2 0.413 21.141274491635222 11.216188701022713 -9.706473933974124 0 0 -1
712 238 1 -0.826 52.2033218999466 5.939602933721229 -5.077589337795007 -1 0 0
714 238 2 0.413 52.64137270569255 5.677638642564808 -5.94626057529631 -1 0 0
713 238 2 0.413 52.70638061882805 6.7187696726265145 -4.771117674475836 -1 0 0
551 184 2 0.413 5.0000520162216375 3.728428961329797 -9.814666816084063 0 -1 0
187 63 1 -0.826 25.012801258228734 -12.057033312052623 -6.724105097254569 0 0 0
650 217 2 0.413 25.35597087189099 9.278965695745793 -11.361217820577918 0 0 1
593 198 2 0.413 -1.3736397736181605 2.0237016897283855 -2.872844292544274 0 0 0
906 302 2 0.413 0.7000010217596646 11.382164642279161 -8.694476162141836 0 0 0
649 217 1 -0.826 25.044492567964824 8.742466553050583 -12.095915179290579 0 0 1
651 217 2 0.413 24.159073644245765 9.10033813040425 12.108858320759825 0 0 0
181 61 1 -0.826 0.942118129849776 11.434772577580805 -3.6643662549448095 0 0 -1
218 73 2 0.413 6.205840799451444 9.506251138161236 -9.899557713727969 0 -1 1
643 215 1 -0.826 52.23697608815701 1.8886022252869807 -10.42109913352393 -1 -1 1
530 177 2 0.413 3.9331116840083062 7.121525748498048 -11.623085811327714 0 0 1
802 268 1 -0.826 -3.1280780354171807 5.7699658050883755 -4.242398675521777 0 0 1
592 198 1 -0.826 -2.1814521459856167 2.0386035332933403 -3.370497870550679 0 0 0
869 290 2 0.413 22.097538148107724 5.109632456300311 -10.058197966695726 0 0 0
529 177 1 -0.826 3.6179019019154097 7.785069861403581 -10.995088349205544 0 0 1
531 177 2 0.413 2.5838764288520935 7.784951353517464 -11.145329768619616 0 0 1
671 224 2 0.413 28.375123739906385 10.127221591181925 -3.9292646609324446 0 0 0
412 138 1 -0.826 58.49190348127208 3.692383788667847 -6.955018556220487 -1 0 1
924 308 2 0.413 57.30720448327061 7.673637583865499 -5.368873220640139 -1 -1 0
922 308 1 -0.826 57.764257239510314 8.450055879973178 -5.716326300238003 -1 -1 0
923 308 2 0.413 58.58902568887437 8.041732867631815 -6.108134616009212 -1 -1 0
672 224 2 0.413 29.269104435360568 8.99094873045441 -3.9433912525255757 0 0 0
670 224 1 -0.826 28.326346096198932 9.210730987775971 -3.728168110883308 0 0 0
550 184 1 -0.826 5.194952667062111 4.593415811461565 -10.266056662213275 0 -1 0
552 184 2 0.413 5.889037116172084 4.356678403856844 -10.85078466654164 0 -1 0
219 73 2 0.413 4.7168603461340375 9.039651027864696 -9.992868370712143 0 -1 1
542 181 2 0.413 12.950128104267261 9.746140611382295 -8.740867570207605 0 -1 0
916 306 1 -0.826 9.862410121725837 11.161006808452814 -8.152897692311559 0 -1 1
918 306 2 0.413 9.40960933243677 11.918121658916554 -8.55944711804749 0 -1 1
413 138 2 0.413 58.82358024461537 4.581683724583229 -6.6656620324324365 -1 0 1
445 149 1 -0.826 56.069702405171306 8.897877012793622 -11.180121895029382 -1 -1 0
447 149 2 0.413 56.01499620082003 8.113275548362669 -11.822454966540572 -1 -1 0
217 73 1 -0.826 5.277327384919108 9.639267469515104 -9.50661771370448 0 -1 1
917 306 2 0.413 9.191134645096508 10.892187192710576 -7.613175006450003 0 -1 1
414 138 2 0.413 57.57072917900915 3.969466820925451 -7.097874881605961 -1 0 1
307 103 1 -0.826 4.799454700755753 12.118978710023317 -5.06435217328323 0 -1 0
645 215 2 0.413 51.92062001661529 2.0263004546972248 -11.348910016695077 -1 -1 1
309 103 2 0.413 5.807541964371069 -12.082666878587833 -5.019437907533176 0 0 0
308 103 2 0.413 4.588279758143095 -11.245048292247716 -4.805263460675429 0 0 0
766 256 1 -0.826 7.822322200272623 10.324932448632072 -4.185279216589879 0 -1 0
815 272 2 0.413 12.075323725422324 10.57604459652254 -3.910813920233041 0 0 0
816 272 2 0.413 10.891287207124478 10.87074925642851 -3.1566336283288816 0 0 0
767 256 2 0.413 8.082920128336344 9.69782203373433 -4.850144375108671 0 -1 0
100 34 1 -0.826 3.9786507090336833 6.562005767714155 -8.01723351811423 0 0 0
93 31 2 0.413 12.257279672211665 5.23353694219848 10.392724781207416 0 0 0
295 99 1 -0.826 11.837675760912205 -11.428284621186403 -6.174874931241592 0 1 0
296 99 2 0.413 11.94463398756439 -11.60258202666333 -5.212770299777719 0 1 0
814 272 1 -0.826 11.449837138095468 11.321453682944789 -3.826269081602799 0 0 0
102 34 2 0.413 4.399079165530708 6.238723198719278 -8.868894586909779 0 0 0
101 34 2 0.413 3.6956734231468253 7.38176975025139 -8.394066616454802 0 0 0
793 265 1 -0.826 36.540882881040055 -11.63697767995027 -9.560989071795264 -1 0 0
795 265 2 0.413 35.82721627808229 -11.985763319827662 -9.014179324283155 -1 0 0
446 149 2 0.413 56.54551540457358 8.413543648975825 -10.449021263877798 -1 -1 0
349 117 1 -0.826 7.574173981203945 6.334748441076826 11.445159597665526 0 -1 -1
350 117 2 0.413 6.628348597028843 6.323342267902294 11.194110393128618 0 -1 -1
351 117 2 0.413 7.736546126581434 5.459780851852347 11.039731012471272 0 -1 -1
1043 348 2 0.413 8.800323853879092 -11.28868691545798 -11.025674913937165 0 0 1
1042 348 1 -0.826 8.827813357709466 -10.9208439700158 -10.100856689965482 0 0 1
911 304 2 0.413 -9.709094178527497 9.20593917607546 -11.200309179554854 0 0 0
910 304 1 -0.826 -8.854602139886417 9.513118187285286 -11.290160873292244 0 0 0
15 5 2 0.413 -9.138296924194409 -3.8613744200698434 -5.201745503418211 0 1 0
157 53 1 -0.826 60.5942147503837 -8.11033271827683 -3.468029069902263 -1 0 0
158 53 2 0.413 -11.316731188688202 -8.343391022589913 -3.9024741367458535 0 0 0
159 53 2 0.413 -11.9851485106046 -7.16293854858949 -3.0919584559128612 0 0 0
993 331 2 0.413 -4.543133132425738 -8.322805891962206 -2.1198342542674062 0 0 0
991 331 1 -0.826 -3.8596293213207336 -7.877677204088796 -2.693507395258939 0 0 0
992 331 2 0.413 -3.9631811422757792 -6.9175990286404865 -2.465875016622695 0 0 0
951 317 2 0.413 -9.995577319378123 -8.13915427057556 -1.0807821126283912 0 1 1
501 167 2 0.413 41.50283590205556 -8.923235391097306 -1.530793508027081 0 0 0
499 167 1 -0.826 42.14459303874601 -9.566169164738628 -1.8452007833847528 0 0 0
500 167 2 0.413 42.07385286029866 -10.210740642689712 -1.1613084801332807 0 0 0
213 71 2 0.413 -6.76755425694706 -7.717195575866043 3.116132813471708 0 1 -2
899 300 2 0.413 19.850802077285017 -10.305803155195079 1.2699669989821576 0 2 0
211 71 1 -0.826 -6.029237372038544 -7.32207743682806 2.5818684281495194 0 1 -2
798 266 2 0.413 -7.924843216279077 -11.503319237544444 1.7012494130597418 0 1 1