LAMMPS data file via write_data, version 2 Aug 2023, timestep = 100000, units = real

1491 atoms
5 atom types
686 bonds
1 bond types
343 angles
1 angle types

-12.120000000000001 12.120000000000001 xlo xhi
-12.120000000000001 12.120000000000001 ylo yhi
-28.28 28.28 zlo zhi

Masses

1 15.9994
2 1.008
3 28.99
4 35.453
5 26.9815

Pair Coeffs # lj/cut/tip4p/long

1 0.185199 3.1589
2 0 0
3 0.0469 2.4299
4 0.15 4.0447
5 11.697 2.574

Bond Coeffs # harmonic

1 0 0.9572

Angle Coeffs # harmonic

1 0 104.52

Atoms # full

478 16 1 -1.1128 -9.064186242621515 -10.025555526378641 -6.54762709161818 0 0 0
86 0 5 0 -10.910100573519516 -9.979490293888544 -9.052869060551185 0 0 0
484 18 1 -1.1128 -6.426467385159557 -7.660664912111359 -6.30652721710241 0 0 0
451 7 1 -1.1128 -10.72479402767974 -8.007218513679677 -6.368459204430479 1 0 0
544 38 1 -1.1128 -8.598525801531677 -6.142968305372272 -6.597713443707751 0 0 0
545 38 2 0.5564 -7.775247692444545 -6.610051636627476 -6.455083356042356 0 0 0
452 7 2 0.5564 -10.157305762382126 -8.770119000450812 -6.478992882703177 1 0 0
453 7 2 0.5564 -10.12316751434873 -7.263419795027511 -6.335511990942001 1 0 0
480 16 2 0.5564 -8.445421815089105 -10.262365554837372 -7.238518234530303 0 0 0
485 18 2 0.5564 -5.910415397166521 -8.44461433751139 -6.4946415151989605 0 0 0
479 16 2 0.5564 -9.728159120352604 -10.71450092430658 -6.573644688853172 0 0 0
546 38 2 0.5564 -8.430609990717395 -5.257120412975081 -6.276274482570113 0 0 0
486 18 2 0.5564 -5.814454527536044 -6.935129351001955 -6.430288786851066 0 0 0
1153 241 1 -1.1128 -6.7362372946438 -3.8980970972651727 -6.603669344054251 0 0 0
1045 205 1 -1.1128 -10.556253076301765 -3.9869204239225278 -6.71872020632826 0 0 0
1154 241 2 0.5564 -6.426124003216657 -4.10964933166593 -5.7231396637673555 0 0 0
1155 241 2 0.5564 -6.231611078513126 -3.1249850080866852 -6.8564953715385535 0 0 0
1047 205 2 0.5564 -10.298766796127934 -4.429175426464618 -7.527647615241653 0 0 0
1046 205 2 0.5564 -11.468151534710199 -4.244722992584796 -6.584030188102723 0 0 0
291 0 5 0 -8.800684970996125 -3.9118162135180268 -9.035705204176535 0 0 0
100 0 5 0 -6.778289379890279 -5.959966398292698 -9.028816252344255 0 0 0
99 0 5 0 -8.776888081398097 -8.10673990494368 -8.94594443155122 0 0 0
88 0 5 0 -6.72175437704549 -10.014568906166748 -9.018763441777642 0 0 0
98 0 5 0 -10.819070341270596 -6.038233003947524 -9.065007503415224 0 0 0
55 0 5 0 -6.8147578488890685 -7.96555154668197 -10.970461826796017 0 0 0
56 0 5 0 -8.778123090427064 -5.998018174359459 -10.944471380615747 0 0 0
219 0 5 0 -10.795312702783674 -3.988220304790173 -11.012322990875727 0 0 0
223 0 5 0 -6.6761019560164 -3.925683022446945 -10.949493258447653 0 0 0
32 0 5 0 -8.839971528331022 -9.986197905894022 -11.028111095693756 0 0 0
51 0 5 0 -10.913043095254721 -8.020202724298363 -11.048719969805376 0 0 0
30 0 5 0 -6.704496675870493 -9.90896218952216 -12.91116335370111 0 0 0
222 0 5 0 -6.675262444452599 -1.926890030552717 -12.992127782124477 0 0 0
218 0 5 0 -10.846015874455821 -1.971062434596566 -13.06547141436575 0 0 0
292 0 5 0 -6.710873306385041 -1.9213441908308353 -9.000192529881387 0 0 0
221 0 5 0 -8.751048576902372 -3.907808042316791 -12.947405754701073 0 0 0
224 0 5 0 -8.744276394906722 -1.8893798251559817 -10.980516058144161 0 0 0
290 0 5 0 -10.88800407209766 -1.9516431560512808 -9.101827191465539 0 0 0
50 0 5 0 -10.741785326388218 -5.9944942809610495 -12.961847432950012 0 0 0
54 0 5 0 -6.776012989433393 -5.983606576323522 -12.957413410001003 0 0 0
53 0 5 0 -8.754930089896591 -7.974404329123857 -13.067432076364115 0 0 0
26 0 5 0 -10.718149299664987 -9.976532399036655 -13.133002675840086 0 0 0
36 0 5 0 -4.729815050653231 -9.993241869457792 -10.952774596284836 0 0 0
547 39 1 -1.1128 -4.6597743910599405 -5.786389670404846 -6.434170257526334 0 0 0
101 0 5 0 -4.769576489541139 -7.9461092226440915 -8.913672427517437 0 0 0
60 0 5 0 -4.700009015549611 -5.964492689549406 -10.98894631302562 0 0 0
225 0 5 0 -4.754044858857267 -3.9197835218372465 -13.033185208647614 0 0 0
57 0 5 0 -4.790731635622923 -7.973013270166955 -12.975647422805224 0 0 0
1048 206 1 -1.1128 -8.630485771967438 -1.8114848432408517 -6.6124180638935 0 0 0
964 178 1 -1.1128 -4.898821423939645 -1.9091103918350332 -6.530717868912461 0 0 0
228 0 5 0 -4.677383488727823 -1.942750671317227 -10.951342768034403 0 0 0
293 0 5 0 -4.754591987873007 -3.9735047223139777 -8.945619386247524 0 0 0
1050 206 2 0.5564 -7.974754508252689 -2.4736201129652984 -6.83122490108457 0 0 0
1049 206 2 0.5564 -9.468571758137061 -2.265329369174588 -6.70076438764471 0 0 0
454 8 1 -1.1128 -4.880323913629954 -9.916010448693594 -6.51792802486041 0 0 0
456 8 2 0.5564 -4.332054172575303 -10.20573502149427 -5.788724614299413 0 0 0
1156 242 1 -1.1128 -3.4593970706702986 -4.3297313817218805 -2.4635689916327377 7 0 0
966 178 2 0.5564 -4.959054025548559 -1.62881424781281 -5.617463311952874 0 0 0
534 34 2 0.5564 -2.0365256741817994 -8.144701138496442 -4.827059614817967 8 0 0
459 9 2 0.5564 -11.658228710485027 -11.327825090326284 -6.571652613290392 0 0 0
532 34 1 -1.1128 -1.9055610126423197 -7.792633798456896 -3.946651621588845 8 0 0
1158 242 2 0.5564 -3.1370745483569222 -5.139919228290364 -2.068648554112548 7 0 0
1107 225 2 0.5564 -0.9600075635775553 -4.493162901236171 -4.903420031336508 7 0 0
1453 341 1 -1.1128 -2.1005928239091447 -1.4251868594909924 -3.005829425337425 6 0 0
1464 0 3 1.1 -3.269024368131034 -8.359841476479712 -2.2289973142400834 5 0 0
1454 341 2 0.5564 -2.425053145819423 -0.6942178235081816 -2.4798837878732303 6 0 0
1106 225 2 0.5564 -1.6325977740197462 -5.3731275489593004 -3.871344147781701 7 0 0
91 0 5 0 -0.6877535255462784 -11.989856588965097 -9.051802670083312 0 0 0
1105 225 1 -1.1128 -0.9233770633740882 -4.739440300279167 -3.979171538859992 7 0 0
497 22 2 0.5564 -3.1475665166204094 -11.158358382891619 -3.704352735995353 6 0 0
574 48 1 -1.1128 -8.33351680633006 -2.749829469428501 -3.718762925999372 7 -1 0
575 48 2 0.5564 -7.499700527129457 -3.0728379922646085 -4.060394929008192 7 -1 0
576 48 2 0.5564 -8.940401384805591 -3.480560189523155 -3.8367011103344852 7 -1 0
795 121 2 0.5564 -5.153785387380844 -7.4347828491511185 -4.079405242492124 6 0 0
1295 288 2 0.5564 -1.507079522490094 -6.524406933516211 -1.1295106156121941 7 0 0
87 0 5 0 -8.899480955636957 -11.951600662070001 -9.067044672423785 0 0 0
1294 288 1 -1.1128 -2.46291682483943 -6.562314433570147 -1.0942377177642886 7 0 0
793 121 1 -1.1128 -5.145107225946515 -7.368786502949112 -3.1245227808583937 6 0 0
1157 242 2 0.5564 -2.684863831051536 -3.77140840252119 -2.5318760229496164 7 0 0
1138 236 1 -1.1128 0.23369074894249767 -6.7384162136364205 -0.8809716104723933 8 0 0
900 156 2 0.5564 -6.400631084923302 -0.032867263414792375 -7.1614710561672705 0 0 0
667 79 1 -1.1128 -1.185021514741286 -9.372066693662834 -1.316243455192511 6 0 0
455 8 2 0.5564 -5.449394534546759 -10.663314821471516 -6.7019990610861235 0 0 0
971 180 2 0.5564 -4.868204986989808 -2.6463974401194057 -3.600711099628564 8 0 0
663 77 2 0.5564 5.215665445896391 -9.17217899653151 -0.6848927034566878 7 0 0
794 121 2 0.5564 -6.056617911898968 -7.198224930282053 -2.88741964069611 6 0 0
792 120 2 0.5564 1.928403590917694 -5.999165512828249 -0.8480696843092165 7 0 0
1191 253 2 0.5564 -5.75453535026461 -10.658330577526712 -2.2170367832829365 6 0 0
1150 240 1 -1.1128 -8.037943695199106 -9.005426975865909 -3.8651862850417293 6 0 0
434 1 2 0.5564 11.70178131142079 -9.425278815829742 -6.148605591447315 -1 0 0
1119 229 2 0.5564 -6.2744957852449605 -5.019831940291569 -3.8193209141268833 7 0 0
1117 229 1 -1.1128 -5.804472552066292 -4.21381160503231 -4.032872428540346 7 0 0
1118 229 2 0.5564 -4.97055331400854 -4.292355622368316 -3.56950824035101 7 0 0
1478 0 4 -1.1 -4.851618042472633 -9.644717568182038 -0.5061948319537195 5 0 0
515 28 2 0.5564 -7.58283270504008 -2.0689228478385693 -2.170222336489731 7 -1 0
1181 250 2 0.5564 11.796313682090146 -8.143790404226772 -0.20801195305470996 7 0 0
549 39 2 0.5564 -5.412220292974713 -5.2656809832672025 -6.714993443612476 0 0 0
965 178 2 0.5564 -3.959201402926893 -1.9855262989840488 -6.696789607283105 0 0 0
899 156 2 0.5564 -7.629124350851881 -0.4088909762822382 -6.360655165072428 0 0 0
548 39 2 0.5564 -3.981601552369347 -5.140608666625041 -6.235845953863001 0 0 0
1457 342 2 0.5564 10.25460916322814 -0.6702552443268049 -0.11877474619791843 2 0 0
1068 212 2 0.5564 5.484810657790017 -0.7181613790740954 -4.796869262877872 6 0 0
1333 301 1 -1.1128 -6.598351828101055 -5.786074789056301 -0.8774240056156853 8 0 0
972 180 2 0.5564 -3.6879156170046694 -1.7457341636654817 -3.3047070448109 8 0 0
85 0 5 0 11.443279022749365 -11.989000135395983 -9.121304182521003 -1 0 0
498 22 2 0.5564 -4.556514558918202 -10.605431038166236 -3.672204224953044 6 0 0
903 157 2 0.5564 -2.3878167613719863 -0.15359939199462921 -5.125433267857595 0 0 0
581 50 2 0.5564 -7.273878146011621 -6.032258198378822 -2.477085745291707 6 0 0
580 50 1 -1.1128 -7.647101873479841 -6.198914978581912 -3.342644023038566 6 0 0
1190 253 2 0.5564 -6.73967880011225 -10.154221237323151 -3.2501215434458706 6 0 0
641 70 2 0.5564 3.914885930528645 -11.930409030926084 -3.5190108939671423 7 0 0
1165 245 1 -1.1128 -8.736498036156748 -10.46706062576466 -0.2589139014374629 8 0 0
708 92 2 0.5564 -9.096913160758687 -11.279154631490204 -4.327559172891961 7 0 0
876 148 2 0.5564 -8.78916641282881 -1.1851210810351651 -4.263700187376551 7 0 0
874 148 1 -1.1128 -9.15336716907662 -0.3100460884699766 -4.130053393455085 7 0 0
1335 301 2 0.5564 -5.841417836291971 -5.216439671322419 -0.7400990750048906 8 0 0
1189 253 1 -1.1128 -6.144977830987081 -10.880343650083073 -3.0623338034642726 6 0 0
1151 240 2 0.5564 -8.171378619287054 -8.761648643170021 -4.781149465917497 6 0 0
1152 240 2 0.5564 -8.916710414061635 -9.195733179830702 -3.536983995068906 6 0 0
42 0 5 0 5.23298238156534 -9.936271043851695 -13.061662050963719 0 0 0
514 28 1 -1.1128 -7.058040407471652 -1.7910745121003109 -1.4194993665214888 7 -1 0
995 188 2 0.5564 8.686956668277343 -7.270895770433458 -6.980615192128317 6 0 0
496 22 1 -1.1128 -3.66626260114725 -10.39304522550129 -3.9523920622413566 6 0 0
970 180 1 -1.1128 -4.579958947159364 -1.7350701434698266 -3.6517622086469492 8 0 0
1375 315 1 -1.1128 5.026220798698742 -7.2615441008361215 -0.42011136305482594 7 0 0
239 0 5 0 9.365926102088702 -3.8817279785597516 -11.156104802222714 0 0 0
648 72 2 0.5564 -12.116807281224341 -1.6617063701491381 -6.345342918857614 7 -1 0
69 0 5 0 7.27447389174401 -7.910933593413451 -13.163841093519931 0 0 0
703 91 1 -1.1128 1.3568170401679396 -3.7605107802650117 -2.6912488061289626 8 0 0
705 91 2 0.5564 0.745345764442229 -4.3614297236478485 -3.116905333210403 8 0 0
606 58 2 0.5564 1.2584689289369517 -3.1421470974018884 -1.1176873727748422 6 -1 0
604 58 1 -1.1128 1.4379321578785036 -2.7178664094756044 -0.27864231440924864 6 -1 0
533 34 2 0.5564 -0.9649493820080045 -7.878716024338509 -3.791265304322842 8 0 0
41 0 5 0 3.2322179003957205 -12.01923406736166 -12.964242893546329 0 0 0
96 0 5 0 9.280724006536476 -10.027643752770961 -9.048535907888445 0 0 0
615 61 2 0.5564 0.42169663852107786 -6.3505108600047615 -3.9757963630592372 6 0 0
613 61 1 -1.1128 0.7988896022641981 -7.170401872190547 -3.656881371219119 6 0 0
668 79 2 0.5564 -0.801493818668207 -10.159603447758116 -1.7021886510506672 6 0 0
33 0 5 0 -4.7918705065589835 -12.04865719161246 -12.925942435097442 0 0 0
46 0 5 0 9.307955664599465 -9.975299493970873 -13.099909317991818 0 0 0
1455 341 2 0.5564 -1.172727134750335 -1.2314581898108676 -3.1393918018078186 6 0 0
1066 212 1 -1.1128 5.662664703987023 -1.3433295591201646 -4.09419573805901 6 0 0
1306 292 1 -1.1128 4.999334330399965 -8.871281040505973 -3.972079355108774 6 0 0
694 88 1 -1.1128 -11.77593085007174 -0.1304490477612572 -2.8864754092813327 8 -1 0
1140 236 2 0.5564 0.45310637462239256 -7.411984353329096 -1.5247196202308324 8 0 0
1307 292 2 0.5564 5.919564739866936 -9.130046536523427 -3.921866357137416 6 0 0
1308 292 2 0.5564 4.562193235128219 -9.410265777662595 -3.3128356950738933 6 0 0
661 77 1 -1.1128 5.52800357236226 -10.0726884953721 -0.7728423191577503 7 0 0
897 155 2 0.5564 0.39705654529147744 -1.2492093454640565 -4.670455857745806 0 0 0
940 170 1 -1.1128 3.56091718307832 -6.570827531176614 -3.170822927451742 6 0 0
942 170 2 0.5564 3.6891564241448713 -6.138792283037398 -2.326345245094259 6 0 0
1159 243 1 -1.1128 3.868514620571107 -3.638919840386424 -3.7457934420442442 6 0 0
896 155 2 0.5564 0.9005558150864115 -2.1558681830391904 -3.5675721243872993 0 0 0
1242 270 2 0.5564 0.23345164082687395 -11.762415019344504 -3.507828891478776 6 0 0
1240 270 1 -1.1128 -0.4172504988043767 -11.078316516228865 -3.6655613784936403 6 0 0
989 186 2 0.5564 3.372128615263887 -2.2116455094962264 -0.7430693975294621 7 0 0
704 91 2 0.5564 2.179370703246148 -3.878705043955466 -3.166362324440305 8 0 0
758 109 2 0.5564 7.041982668528931 -4.739218546941195 -0.6880525121566659 7 -1 0
1241 270 2 0.5564 -0.31690330480362755 -10.860796611642671 -4.59230586703723 6 0 0
941 170 2 0.5564 3.9559730436946783 -7.435691280575114 -3.060346700920793 6 0 0
669 79 2 0.5564 -0.7268588203112935 -9.265871348486206 -0.4825286631666853 6 0 0
614 61 2 0.5564 1.7412879927340807 -7.069076342142041 -3.79076348919169 6 0 0
1116 228 2 0.5564 2.2297173188704913 -0.3685440780385528 -4.038648046629617 6 0 0
642 70 2 0.5564 2.719979874437211 -11.0075458682233 -3.4075799579550883 7 0 0
1160 243 2 0.5564 4.0949225994825165 -4.545774472171892 -3.95219702636491 6 0 0
1161 243 2 0.5564 4.273718710785713 -3.4784453686605694 -2.893547886080453 6 0 0
1373 314 2 0.5564 5.755716491230869 -6.577694047504324 -4.309998276200834 7 1 0
1372 314 1 -1.1128 6.686947782803301 -6.463651894333418 -4.1203608469952275 7 1 0
1374 314 2 0.5564 7.001010186540689 -7.345572553448783 -3.9207711753600822 7 1 0
759 109 2 0.5564 7.48806759305624 -3.3206003982421772 -0.9716431449164705 7 -1 0
990 186 2 0.5564 4.788721490006108 -2.3296973163086996 -0.22227537821935456 7 0 0
988 186 1 -1.1128 4.287046992730298 -2.149021449925288 -1.0172289606465974 7 0 0
757 109 1 -1.1128 7.3276934986677436 -3.9347431266074864 -0.2551571388944814 7 -1 0
813 127 2 0.5564 6.5127556768051065 -6.816391858746197 -1.1796062039842399 6 0 0
611 60 2 0.5564 6.9435136411508624 -1.9777264400190224 -2.6047180664042604 8 0 0
812 127 2 0.5564 7.117818761716989 -6.350092644197728 -2.486649296864708 6 0 0
1458 342 2 0.5564 10.470026678820819 -2.168095861361275 -0.07445486884059926 2 0 0
495 21 2 0.5564 8.656214173568578 -3.324150357600864 -6.585910796331975 0 0 0
591 53 2 0.5564 2.4061382997461243 -9.39929927310344 -1.3072814147190244 7 0 0
445 5 1 -1.1128 3.0574588611338984 -10.116693499712511 -6.207659876923211 0 0 0
887 152 2 0.5564 -0.4206642475538371 -1.2153265392522024 -6.594521610526774 0 0 0
62 0 5 0 1.2401381335958623 -6.015520785579404 -13.049263545112781 0 0 0
294 0 5 0 -2.7971801622938886 -1.9095749068639098 -8.968910045291143 0 0 0
64 0 5 0 -0.7190182716343406 -5.934732847100631 -11.041747314949525 0 0 0
59 0 5 0 -2.7885333348470587 -7.907693098689425 -10.999807488914533 0 0 0
232 0 5 0 -0.7707487557155075 -1.886321674088192 -10.832359648994368 0 0 0
885 151 2 0.5564 -2.0777953478953486 -4.1985938461134005 -7.12220379187068 0 0 0
889 153 1 -1.1128 1.3907896087978016 -4.125284233061982 -6.853418673071342 0 0 0
883 151 1 -1.1128 -2.556047865950635 -3.6163453362572935 -6.531837813132639 0 0 0
884 151 2 0.5564 -1.9614956583652627 -2.8802402524826114 -6.387143805346617 0 0 0
1058 209 2 0.5564 2.2607728324794345 -7.0086011189741395 -6.588364454677407 0 0 0
530 33 2 0.5564 0.47167266939555386 -9.151365219554755 -6.543289858961982 0 0 0
969 179 2 0.5564 -3.233374982037301 -8.252716517127839 -7.035521036590882 0 0 0
531 33 2 0.5564 0.35569641615882885 -10.625220607608263 -6.869167104290074 0 0 0
551 40 2 0.5564 -1.5237566495800658 -6.519148941348614 -6.468472094652013 0 0 0
968 179 2 0.5564 -1.801067967461817 -8.729317393169339 -6.920442328772086 0 0 0
967 179 1 -1.1128 -2.445655514604837 -8.16033395247945 -6.499672601747355 0 0 0
529 33 1 -1.1128 -0.13695511854928769 -9.889240790474744 -6.505988720905374 0 0 0
550 40 1 -1.1128 -0.6947362976786106 -6.046774004936826 -6.544338973494964 0 0 0
1059 209 2 0.5564 2.1302926382764 -8.454274035304083 -6.158364465806491 0 0 0
1057 209 1 -1.1128 1.617226636610619 -7.706228565881046 -6.464081353435299 0 0 0
890 153 2 0.5564 0.6347289514266045 -4.688983917962271 -7.0170920615801915 0 0 0
552 40 2 0.5564 -0.029527486203034047 -6.734034133499729 -6.582486288892086 0 0 0
295 0 5 0 -0.7296214773523948 -3.9506168380784623 -8.90911236824585 0 0 0
891 153 2 0.5564 2.13911417633027 -4.722188208282395 -6.850902054862016 0 0 0
102 0 5 0 -2.734796271393804 -5.985473601506974 -8.921914310532689 0 0 0
104 0 5 0 1.3105022838102196 -5.983269292468003 -8.969760375270916 0 0 0
103 0 5 0 -0.7018944474844674 -7.997789069239771 -8.843167063281088 0 0 0
90 0 5 0 -2.740867696573882 -10.040149022988574 -8.902142785212897 0 0 0
92 0 5 0 1.351963520426045 -9.93642619737366 -8.923829892843372 0 0 0
63 0 5 0 1.3039871428099936 -7.921514249919944 -10.965039831351476 0 0 0
34 0 5 0 -2.7238907910009322 -9.941719407027824 -13.004900054894359 0 0 0
227 0 5 0 -2.7716921938132706 -3.9533614625435543 -10.953958509730716 0 0 0
231 0 5 0 1.2219536461614782 -3.9751796868629907 -10.93633288559001 0 0 0
40 0 5 0 -0.8668167938770238 -9.934265485008217 -10.9617039104396 0 0 0
296 0 5 0 1.315736268973499 -1.9465793071482158 -8.901866905167312 0 0 0
886 152 1 -1.1128 -0.26197635471233116 -2.084762436332573 -6.226935659906408 0 0 0
888 152 2 0.5564 0.5569413874658921 -2.3706603636237205 -6.631823357595088 0 0 0
38 0 5 0 1.234784645134395 -9.98923631832218 -12.991782096811972 0 0 0
58 0 5 0 -2.791980263588939 -5.9104420174766785 -13.143565622155155 0 0 0
230 0 5 0 1.2782877705532683 -1.9375374548198179 -12.862290203601006 0 0 0
61 0 5 0 -0.8201874840275094 -7.9350580966271655 -13.016439612418749 0 0 0
226 0 5 0 -2.78127176077635 -1.9142096622861018 -12.930596350842475 0 0 0
229 0 5 0 -0.8268628174275137 -3.907268296207433 -12.972928608414337 0 0 0
65 0 5 0 3.2763655573001707 -7.96822168908176 -13.141203496740644 0 0 0
297 0 5 0 3.375896726872174 -3.9538760131304356 -8.968929205035192 0 0 0
233 0 5 0 3.2466141848285437 -3.8856765386817824 -13.03875162592784 0 0 0
236 0 5 0 3.2938519177404912 -1.923551844243226 -10.961413801141102 0 0 0
44 0 5 0 3.2581587912511614 -9.971672482779756 -11.045410232529083 0 0 0
68 0 5 0 3.358817521061074 -5.939727461482666 -11.042899377216248 0 0 0
105 0 5 0 3.3385981928047963 -7.883905810538998 -9.040056646194152 0 0 0
487 19 1 -1.1128 3.5966806267693556 -5.9594177732234686 -6.8098791385463135 0 0 0
490 20 1 -1.1128 3.426050856251816 -2.1810655606228875 -6.316077138893272 0 0 0
446 5 2 0.5564 3.3805216687133415 -10.52650027426597 -5.4051980537036535 0 0 0
908 159 2 0.5564 1.9191541573081614 -0.749766114259696 -6.442331866757571 0 0 0
589 53 1 -1.1128 2.180992295719586 -9.714683341444948 -2.1825489105623928 7 0 0
848 139 2 0.5564 -2.0557340021599666 -11.371797165284997 -6.859593962627232 1 0 0
590 53 2 0.5564 1.4662040593789998 -9.144909218516853 -2.4664635493704554 7 0 0
491 20 2 0.5564 4.146733727912764 -2.6349149345709684 -6.7530258327567525 0 0 0
492 20 2 0.5564 3.2021562811007342 -2.7439808156117036 -5.574988556823598 0 0 0
819 129 2 0.5564 -5.413436731224855 -2.688431326868069 -0.32384542840481656 7 0 0
489 19 2 0.5564 4.089948750757621 -5.168066786291409 -7.026032821035278 0 0 0
447 5 2 0.5564 2.45194964362923 -10.758818754345976 -6.578089493552824 0 0 0
1067 212 2 0.5564 5.018460034894568 -2.039373332650365 -4.223447031476795 6 0 0
895 155 1 -1.1128 0.6895802901650391 -1.2420531097932126 -3.7590898805264326 0 0 0
39 0 5 0 1.230020674043148 -11.986136897558737 -11.003781940684034 0 0 0
466 12 1 -1.1128 9.304033125937414 -8.136746988154757 -0.52409861307574 6 0 0
790 120 1 -1.1128 2.6811014788750755 -5.481621911902058 -0.5621172215110221 7 0 0
29 0 5 0 -8.691974555458414 -11.99111111864366 -12.991216840362481 0 0 0
31 0 5 0 -6.792679758539252 -12.002300353656008 -10.965222478611091 0 0 0
847 139 1 -1.1128 -2.5189727746442485 -11.930119089068253 -6.235131473598022 1 0 0
962 177 2 0.5564 10.950838689974445 -5.970359354111879 -7.151760503921566 -1 0 0
468 12 2 0.5564 8.754023269534045 -7.44358448969268 -0.8890708163095643 6 0 0
914 161 2 0.5564 7.22244162484893 -1.7045644403893039 -5.745738334726504 0 0 0
1017 195 2 0.5564 6.195502402167556 -0.44396605618330476 -7.008982012438605 0 0 0
463 11 1 -1.1128 5.231703005946824 -11.872662556387446 -6.636254669578925 0 0 0
1456 342 1 -1.1128 10.644819921276758 -1.3937088681955025 -0.6092365428058207 2 0 0
469 13 1 -1.1128 5.596531515511465 -3.9455727795428173 -6.801561907073862 0 0 0
35 0 5 0 -2.767380790937128 -12.093131478523848 -10.912252868473177 0 0 0
465 11 2 0.5564 4.697657847875545 -11.15247411924396 -6.971388496416079 0 0 0
1180 250 1 -1.1128 -11.496814096626647 -8.01336271999613 -0.15721692872737242 8 0 0
772 114 1 -1.1128 -6.691824597861729 -11.96576905926705 -6.70239015124319 2 0 0
97 0 5 0 11.279104658041515 -7.9990238708697685 -9.045964296891853 -1 0 0
696 88 2 0.5564 -10.914226188143038 -0.3268273594951711 -3.254167992586506 8 -1 0
996 188 2 0.5564 9.693465921582428 -7.620612077229169 -5.90519287058621 6 0 0
647 72 2 0.5564 10.620334436424182 -1.6831124542238927 -6.164082791832615 6 -1 0
435 1 2 0.5564 10.908698605504242 -10.003308387371417 -7.301341669015248 -1 0 0
1476 0 3 1.1 -11.190705359138239 -0.46572261347268357 -0.5356124114562709 3 0 0
70 0 5 0 9.335379859178971 -5.935517141349438 -13.164492349523078 0 0 0
811 127 1 -1.1128 7.3027108552726245 -6.423056870018681 -1.5503223848702994 6 0 0
612 60 2 0.5564 8.372750788036514 -2.459205869264617 -2.7364691823382303 8 0 0
610 60 1 -1.1128 7.748528570486429 -2.1053589736043294 -2.102890423477528 8 0 0
1053 207 2 0.5564 10.00942222116029 -4.188625933566303 -3.5556406807515626 6 0 0
1051 207 1 -1.1128 9.246023992410503 -3.6753641764555085 -3.820354386894859 6 0 0
1061 210 2 0.5564 7.8996715232155035 -9.305210983077858 -4.75525404262989 6 0 0
1060 210 1 -1.1128 7.7864207659394005 -8.818714008765689 -3.9387152845944224 6 0 0
1062 210 2 0.5564 8.517510003289555 -9.099891609747948 -3.388500756192715 6 0 0
818 129 2 0.5564 -4.251590201560714 -3.5608004875338843 -0.7492674790076665 7 0 0
1052 207 2 0.5564 9.000196604256667 -4.03339941889925 -4.673345098622999 6 0 0
516 28 2 0.5564 -7.578454081008958 -2.0426280605769542 -0.6565563786148262 7 -1 0
237 0 5 0 7.351367210993183 -3.9530986526861276 -13.144255146697366 0 0 0
49 0 5 0 11.38437135274219 -7.935945471040481 -13.189813466516002 -1 0 0
488 19 2 0.5564 4.173348035248946 -6.6791323419464526 -7.0662777939678305 0 0 0
45 0 5 0 7.278843090827506 -12.025924061658113 -13.101392480062641 0 0 0
1289 286 2 0.5564 9.987415818348703 -9.146013084488988 -1.7522982683799002 6 0 0
457 9 1 -1.1128 -10.90584652787824 -11.8771952047472 -6.7913995568828875 0 0 0
108 0 5 0 9.351361124370941 -5.929084785154112 -9.057608787746734 0 0 0
52 0 5 0 11.436227636463393 -6.00438369494408 -11.07228015451711 -1 0 0
963 177 2 0.5564 12.036133778245592 -6.822324689121354 -6.528715947164179 -1 0 0
299 0 5 0 7.400876851112123 -3.9529555254619564 -9.127108563910198 0 0 0
106 0 5 0 5.3750615557691 -5.965313625156946 -9.050676712045588 0 0 0
961 177 1 -1.1128 11.674564693454549 -5.936027426768202 -6.526286239553487 -1 0 0
1290 286 2 0.5564 10.460830907868019 -9.036309795102367 -3.1860828512490116 6 0 0
240 0 5 0 7.364576024096609 -1.908449197863993 -11.094470489092718 0 0 0
1179 249 2 0.5564 -12.078033298794015 -4.9321896261591744 -3.7266416114350833 8 0 0
1177 249 1 -1.1128 11.364114809602444 -5.394172433132796 -3.984125349232741 7 0 0
1288 286 1 -1.1128 9.990777992538145 -9.61566019135742 -2.586355712898699 6 0 0
1178 249 2 0.5564 11.3997346550194 -5.419927673897625 -4.9403170423703315 7 0 0
697 89 1 -1.1128 -10.267632356814454 -4.772329996677299 -3.613275930821126 8 0 0
809 126 2 0.5564 -11.828198767204928 -3.1938484318962237 -1.575358303024468 9 0 0
808 126 1 -1.1128 -10.958817900376683 -2.842539425553981 -1.3832074748561172 9 0 0
1475 0 3 1.1 11.528435495351111 -11.152909148269764 -1.7496180262428844 6 0 0
1096 222 1 -1.1128 9.975284248221055 -0.612472290143427 -4.170882864074029 7 0 0
1098 222 2 0.5564 10.79028534660232 -0.15380707723866643 -3.9666849418128893 7 0 0
1097 222 2 0.5564 9.500359886218952 -0.6391795727189246 -3.340262973431663 7 0 0
791 120 2 0.5564 2.339978268796051 -4.591945712392564 -0.4709283182239507 7 0 0
646 72 1 -1.1128 11.33398933268623 -2.1278134787506398 -6.621375786631942 6 -1 0
1182 250 2 0.5564 -11.14255771349391 -8.54661440085983 -0.8688374598955255 8 0 0
300 0 5 0 9.444096502331805 -1.9345622466745727 -9.142867021976967 0 0 0
107 0 5 0 7.300389886706146 -7.983861832160933 -9.052198903350268 0 0 0
1136 235 2 0.5564 11.25940453205823 -11.358141234918948 -4.588280454602712 6 1 0
71 0 5 0 9.388981156321922 -7.954340544150685 -11.111571506266445 0 0 0
289 0 5 0 11.34853622250613 -3.9793468821477522 -9.078745944656857 -1 0 0
235 0 5 0 5.343829383579483 -3.923220088129614 -11.07020752327053 0 0 0
582 50 2 0.5564 -7.758452313828841 -7.148987758828668 -3.3770863607902584 6 0 0
220 0 5 0 11.385633992269778 -1.9507843366413102 -11.143528112371069 -1 0 0
643 71 1 -1.1128 7.415851016498821 -6.001543598877305 -6.676363780424405 1 0 0
817 129 1 -1.1128 -4.977685513103845 -3.51763184696702 -0.12700394635954182 7 0 0
678 82 2 0.5564 8.097548503268383 -10.707042872727623 -6.638733094842301 3 0 0
913 161 1 -1.1128 7.605733924698219 -1.798067159018335 -6.617831627130242 0 0 0
699 89 2 0.5564 -9.98789188486712 -5.322513890840378 -4.344916803854013 8 0 0
810 126 2 0.5564 -10.545620971186649 -2.742078126189188 -2.240785874229857 9 0 0
1401 323 2 0.5564 11.391081168514907 -7.089945823836886 -4.199253569704892 6 0 0
1400 323 2 0.5564 -12.081667210110778 -8.36039818026593 -3.9006301016710547 7 0 0
1399 323 1 -1.1128 11.328525238687737 -8.043338382397069 -4.2572675909975715 6 0 0
1488 0 4 -1.1 -10.94819710616972 -9.632032819935924 -2.6425292346688276 6 1 0
698 89 2 0.5564 -9.822593852414146 -5.142417217315733 -2.850883514897132 8 0 0
645 71 2 0.5564 7.337760150868871 -6.321576666828252 -5.77763794603943 1 0 0
1466 0 3 1.1 -9.561767401888636 -11.66822022221705 -1.9140161594973997 8 0 0
493 21 1 -1.1128 9.243363622414407 -4.077267818885024 -6.52067792108431 0 0 0
644 71 2 0.5564 7.98696488643743 -5.236249787418723 -6.609800384114964 1 0 0
72 0 5 0 7.3490772723700095 -5.936480984770951 -11.095614602256756 0 0 0
238 0 5 0 9.444591651264078 -1.9033791836068437 -13.144829527477524 0 0 0
474 14 2 0.5564 5.075730899839579 -8.499211386113904 -5.90236678214815 0 0 0
94 0 5 0 5.33412709265377 -9.998669873856336 -9.050511212876208 0 0 0
494 21 2 0.5564 10.085400599056653 -3.703309696097723 -6.261008455644595 0 0 0
48 0 5 0 7.3246759750647845 -9.99661273674022 -11.054480218749763 0 0 0
234 0 5 0 5.338535743021159 -1.8915099622873233 -13.01072253856887 0 0 0
28 0 5 0 11.327967116181446 -9.971686648506019 -11.164610023760863 -1 0 0
994 188 1 -1.1128 9.449837822230428 -7.822778385215299 -6.8085338410897736 6 0 0
676 82 1 -1.1128 7.753905433449928 -9.82861571353606 -6.47583962499218 3 0 0
66 0 5 0 5.331467919939017 -5.9040224793310685 -13.046417365634907 0 0 0
298 0 5 0 5.360893207295093 -1.9302119727380942 -9.057870222483611 0 0 0
915 161 2 0.5564 8.262981916088314 -1.1038669625671522 -6.666790432670315 0 0 0
677 82 2 0.5564 8.46713615311357 -9.24159469532059 -6.726826785043006 3 0 0
470 13 2 0.5564 6.1670636534553775 -4.632862281360893 -6.457466019272973 0 0 0
471 13 2 0.5564 6.15942059326968 -3.4359455628437092 -7.384411186136283 0 0 0
67 0 5 0 5.326158804960228 -8.009071546410713 -11.074663327719891 0 0 0
217 0 5 0 11.471151914169955 -3.962582397857964 -13.016492173588476 -1 0 0
433 1 1 -1.1128 11.242042638546344 -10.216398460493473 -6.429744831071243 -1 0 0
472 14 1 -1.1128 5.314244341655187 -8.016327631284954 -6.693662619084622 0 0 0
473 14 2 0.5564 6.019518109916613 -8.53133277366315 -7.085638853021891 0 0 0
464 11 2 0.5564 5.674306207055406 -11.507003178810955 -5.870317262267951 0 0 0
1391 320 2 0.5564 12.082149035894721 -6.243369619142055 -0.08101359318465261 7 0 0
47 0 5 0 9.388732212066257 -11.978565123257422 -11.105628530098334 0 0 0
1296 288 2 0.5564 -2.6629073167775594 -6.720122180121011 -0.17156954674301575 7 0 0
662 77 2 0.5564 4.870408699561518 -10.600184743639659 -0.31952242956999727 7 0 0
43 0 5 0 5.259521946069812 -12.005047742191415 -11.122452219104604 0 0 0
640 70 1 -1.1128 3.0796607799720466 -11.719654894420207 -3.9364783609791045 7 0 0
25 0 5 0 11.425147798697248 -12.090014175524066 -13.122998716224098 -1 0 0
89 0 5 0 -4.809544512300877 -12.083535559355967 -8.94791751949806 0 0 0
1377 315 2 0.5564 4.077061100628577 -7.256298726333588 -0.2967155086749894 7 0 0
1334 301 2 0.5564 -7.168982978578026 -5.611488203490548 -0.12903496508860401 8 0 0
1139 236 2 0.5564 0.17173091488822376 -7.210940118459327 -0.05084552337674606 8 0 0
1149 239 2 0.5564 -5.961074994880932 -0.16680735408897526 -3.3971910244718617 6 -1 0
27 0 5 0 -10.858357272409036 -12.028592516053186 -11.07227425619392 0 0 0
93 0 5 0 3.301077703321106 -11.97945285202446 -9.092374223243421 0 0 0
984 184 2 0.5564 -10.645791528506276 -0.03322027152474985 -7.251493920685776 0 0 0
674 81 2 0.5564 8.390600229681816 -11.924010547478119 -3.158566562776525 6 0 0
95 0 5 0 7.359438228708512 -12.0193822524175 -8.989754027550896 0 0 0
675 81 2 0.5564 8.29337406259547 -12.070742760125981 -4.662199655353452 6 0 0
774 114 2 0.5564 -6.828299450455462 -11.671270993100098 -5.801908926371693 2 0 0
982 184 1 -1.1128 -11.099680501263917 -0.054288198771044884 -6.4089935023291495 0 0 0
1229 266 2 0.5564 -1.2862684629390329 -12.0169390506797 -0.6271807474152366 7 0 0
1390 320 1 -1.1128 11.696711517814538 -5.368070429759867 -0.04162978416868151 7 0 0
605 58 2 0.5564 0.6294203370770791 -2.2508252344559216 -0.06805034082158835 6 -1 0