LAMMPS data file via write_data, version 20 Nov 2019, timestep = 90000

576 atoms
4 atom types
1 bond types
1 angle types

1.2258942925177916e+00 1.9359683419082572e+01 xlo xhi
1.2587857059720395e+00 1.9326792005627880e+01 ylo yhi
-3.1886858880665780e+00 2.3774263599664721e+01 zlo zhi

2 extra bond per atom
1 extra angle per atom
2 extra special per atom

Masses

1 28.0855
2 15.9994
3 15.9994
4 1.008

Atoms # full

352 40 1 1.1000000000000001e+00 5.4540202657584516e+00 6.6175586205671930e+00 3.0014282125747203e+00 1 0 2
269 30 2 -5.5000000000000004e-01 3.7494740446641330e+00 4.3970005019629630e+00 -1.5717395774749634e+00 1 0 0
91 11 1 1.1000000000000001e+00 6.7214293283252591e+00 6.8707742054522338e+00 -2.5163134269929341e+00 0 1 0
104 12 2 -5.5000000000000004e-01 5.7510108894846921e+00 2.8940092387042955e+00 -1.0032076657882303e+00 -2 1 0
210 24 1 1.1000000000000001e+00 5.3247719167245222e+00 4.0879497103119498e+00 -2.0842678938069685e+00 1 0 1
571 64 2 -5.5000000000000004e-01 6.1216482128111140e+00 5.5283406089568592e+00 -1.9979215109375565e+00 1 0 2
263 30 1 1.1000000000000001e+00 2.3192279767662489e+00 4.9727291791565067e+00 -2.0700008058355519e+00 0 1 0
525 59 1 1.1000000000000001e+00 5.5722481297310935e+00 1.3091914986862632e+00 -6.5532837184004522e-01 0 1 0
376 42 2 -5.5000000000000004e-01 3.0016318414748548e+00 1.5044197381948250e+00 -2.8178645443217851e+00 0 1 0
229 26 2 -5.5000000000000004e-01 6.8503034174648620e+00 5.8572339918224925e+00 2.7102567997846485e+00 0 0 1
65 8 1 1.1000000000000001e+00 7.9514845702127799e+00 4.6186072313760338e+00 2.6913952559086418e+00 0 1 0
348 39 2 -5.5000000000000004e-01 8.5325736997983981e+00 4.3071004851536303e+00 1.2221303944243618e+00 1 1 2
354 40 1 1.1000000000000001e+00 9.1674612902837662e+00 3.4587112220603200e+00 -3.2758555836138663e-03 1 0 0
504 56 2 -5.5000000000000004e-01 8.5611008632710330e+00 3.8268741658732224e+00 -1.4347995866871825e+00 2 0 1
528 59 2 -5.5000000000000004e-01 9.0321925475820297e+00 1.8326147106998907e+00 1.6059512710085019e-01 0 0 1
106 12 2 -5.5000000000000004e-01 7.1009612053505169e+00 3.3448504140464426e+00 3.1277504554679503e+00 -1 0 -1
297 33 2 -5.5000000000000004e-01 1.5084657398466339e+00 1.6150083991946995e+00 -6.3653407856630306e-01 0 0 1
221 25 2 -5.5000000000000004e-01 2.6907331151251470e+00 6.2176088283083031e+00 -3.0530384753084414e+00 0 0 0
27 3 2 -5.5000000000000004e-01 4.7672016420827923e+00 7.0831631833523794e+00 1.6410968645363775e+00 1 0 -1
278 31 2 -5.5000000000000004e-01 1.0023508164670542e+01 8.1940308907993753e+00 -2.0597821588974100e-01 0 0 0
230 26 2 -5.5000000000000004e-01 8.0320240080300742e+00 7.4916088425713614e+00 -1.8439755929821791e+00 0 1 0
455 51 2 -5.5000000000000004e-01 1.0089965091862201e+01 7.3334549426717102e+00 3.7370556343962309e+00 1 -1 1
100 12 1 1.1000000000000001e+00 3.0512384137457440e+00 1.0193448737283083e+01 -2.5404446755087640e+00 1 1 -1
416 47 1 1.1000000000000001e+00 1.6714117814381066e+00 9.6725897823152032e+00 3.3889689399580889e+00 -1 1 -1
379 43 1 1.1000000000000001e+00 9.5917703833076597e+00 7.9030667703570643e+00 -1.7109227337825272e+00 0 0 0
257 29 2 -5.5000000000000004e-01 9.9560428268875381e+00 9.3713804901246025e+00 -2.4174422355557947e+00 -1 0 1
488 55 1 1.1000000000000001e+00 5.0789273891428772e+00 1.1998477881872565e+01 -1.1459063499508908e+00 0 1 1
305 34 2 -5.5000000000000004e-01 5.6418719113252758e+00 1.1324353746690292e+01 3.5150502905724568e-01 0 -1 1
497 56 1 1.1000000000000001e+00 6.5240659208513216e+00 1.1292952358817635e+01 1.6934088122889848e+00 1 -1 1
472 53 2 -5.5000000000000004e-01 4.4384596638392306e+00 1.0756992033390310e+01 -1.9946465179929358e+00 0 -1 0
168 19 2 -5.5000000000000004e-01 7.8236346440921487e+00 1.0489990052702229e+01 2.0428079190078878e+00 1 -1 1
326 37 1 1.1000000000000001e+00 9.2639365863044958e+00 1.0737553503287137e+01 2.8402181857454001e+00 0 0 2
238 27 2 -5.5000000000000004e-01 9.4105150907794464e+00 1.2332190963418238e+01 2.7902446235753722e+00 -1 1 0
14 2 2 -5.5000000000000004e-01 3.7422558222394713e+00 1.2811480150475933e+01 -1.0232459325997141e+00 0 0 0
333 37 2 -5.5000000000000004e-01 6.2129830144710283e+00 1.2465720326446988e+01 2.7543141714196122e+00 1 -1 0
162 18 2 -5.5000000000000004e-01 1.5335147343899120e+00 1.0545233576163909e+01 -2.0873245617826419e+00 0 -1 -1
564 63 2 -5.5000000000000004e-01 6.2827043804091058e+00 1.3044251975627914e+01 -1.7114947794034214e+00 0 1 1
24 3 2 -5.5000000000000004e-01 1.4818730865462248e+00 9.5931264053246714e+00 1.8194444721893797e+00 0 -1 0
173 20 1 1.1000000000000001e+00 1.8992507251113293e+00 1.6627071877127360e+01 5.8794044813652793e+00 1 -2 0
435 49 1 1.1000000000000001e+00 9.9157855509102859e+00 1.3689692325139930e+01 2.0843840058406529e+00 0 -1 0
541 61 1 1.1000000000000001e+00 2.6624182204505451e+00 1.3305885166213573e+01 -2.0989590529616340e+00 0 0 0
141 16 2 -5.5000000000000004e-01 4.0047660222160975e+00 1.9059648255147170e+01 -5.2812338828914840e-01 0 -2 0
48 6 1 1.1000000000000001e+00 2.6636561231730500e+00 1.8931851277225039e+01 -1.4027969650099290e+00 0 -1 0
520 58 2 -5.5000000000000004e-01 6.1723806434648054e+00 1.8916180492716830e+01 8.3607720139096120e-01 0 0 1
361 41 1 1.1000000000000001e+00 3.6161206379943609e+00 1.6241110389167542e+01 -1.8508143628626306e+00 0 0 1
224 25 2 -5.5000000000000004e-01 4.2526285189290585e+00 1.5918153410327548e+01 -3.8474510058585804e-01 -1 0 0
254 29 1 1.1000000000000001e+00 3.9168734378088450e+00 1.5740599672765267e+01 1.3347891682749722e+00 0 0 0
394 44 2 -5.5000000000000004e-01 2.4961872420162567e+00 1.7357328658782638e+01 -1.6083140786284842e+00 0 -1 0
321 36 2 -5.5000000000000004e-01 3.0030879248656999e+00 1.4846314089539108e+01 -2.3733344674555288e+00 0 -1 0
562 63 2 -5.5000000000000004e-01 6.2097356958625198e+00 1.8495739452272431e+01 -1.8351567432722815e+00 0 0 2
421 47 2 -5.5000000000000004e-01 4.6071710402817576e+00 1.7076018086524979e+01 2.0557477048006416e+00 -1 1 -1
414 46 2 -5.5000000000000004e-01 4.6001719134250276e+00 1.4445066748367049e+01 2.0777990447370978e+00 0 0 0
220 25 2 -5.5000000000000004e-01 2.3612919599301163e+00 1.5681397393669993e+01 1.6459914052120683e+00 0 0 0
128 15 1 1.1000000000000001e+00 5.9153861445542626e+00 1.8081200188749065e+01 2.2499103152451339e+00 1 -1 0
112 13 2 -5.5000000000000004e-01 6.8617420562650313e+00 1.5901748622574766e+01 -1.7225704595206699e+00 -1 1 0
166 19 2 -5.5000000000000004e-01 7.1046748283605643e+00 1.7080618587470095e+01 2.5880381793542142e+00 0 -2 0
111 13 1 1.1000000000000001e+00 7.3279718386893729e+00 1.7399356243030550e+01 -2.2969977190813609e+00 -2 -1 0
300 34 1 1.1000000000000001e+00 7.2561505558192385e+00 1.4362016735190847e+01 -2.1666383325647187e+00 0 -1 1
96 11 2 -5.5000000000000004e-01 8.7751661452976677e+00 1.4255552904660139e+01 -1.5781196943688138e+00 0 0 0
4 1 2 -5.5000000000000004e-01 9.0161949281108171e+00 1.7396528811126217e+01 9.4244387505873539e-01 -1 -2 0
49 6 2 -5.5000000000000004e-01 8.7007342426003795e+00 1.7853865023009892e+01 -1.5931832363563758e+00 0 -1 0
433 49 1 1.1000000000000001e+00 9.4121039361373047e+00 1.8402156572979990e+01 -2.4285788658930887e-01 -1 -1 1
110 13 1 1.1000000000000001e+00 8.2724917024959783e+00 1.6325101835308001e+01 1.8585379713309864e+00 -1 0 1
50 6 2 -5.5000000000000004e-01 8.8188204504266743e+00 1.4916601599076014e+01 2.1484592375458775e+00 -1 0 1
407 46 1 1.1000000000000001e+00 5.1805848356498334e+00 1.3534959505028914e+01 3.4274701734248141e+00 0 -1 1
146 17 1 1.1000000000000001e+00 7.3227580483602814e+00 1.3629431895983107e+01 9.7285660178129429e+00 0 0 0
273 31 1 1.1000000000000001e+00 1.2853660607524751e+00 1.5984472779721346e+01 2.8659010928910038e+00 0 0 -1
536 60 2 -5.5000000000000004e-01 4.4906880705841292e+00 5.4470392211910568e+00 3.7236286620474508e+00 0 0 1
476 53 2 -5.5000000000000004e-01 8.9534429761504359e+00 4.9649930330891303e+00 3.9028644301848718e+00 1 1 0
101 12 1 1.1000000000000001e+00 6.1686044245188087e+00 3.7064279338210904e+00 9.1130284053753119e+00 0 0 0
285 32 2 -5.5000000000000004e-01 5.3416091742060701e+00 2.5231017785184182e+00 9.7610261994695229e+00 0 1 1
486 54 2 -5.5000000000000004e-01 2.9911496410672833e+00 2.2962987493933298e+00 6.8210789868658530e+00 1 0 0
314 35 2 -5.5000000000000004e-01 5.2358204812987719e+00 3.3126445546820849e+00 5.0344299131892836e+00 1 0 2
33 4 2 -5.5000000000000004e-01 6.2907247983776688e+00 5.1965165421742698e+00 9.6481952037150922e+00 0 1 -1
45 5 2 -5.5000000000000004e-01 2.6302332240383617e+00 3.9404713798504889e+00 4.9241138724706977e+00 1 0 0
569 64 1 1.1000000000000001e+00 4.1365719461382682e+00 4.5479236223250750e+00 5.0201149266340108e+00 1 0 1
461 52 1 1.1000000000000001e+00 1.8001962210132680e+00 3.0607598756721601e+00 5.9966898819100667e+00 1 0 0
468 52 2 -5.5000000000000004e-01 1.8255427666575696e+00 6.7022203552560686e+00 6.2109558998145449e+00 0 2 0
108 12 2 -5.5000000000000004e-01 4.1762433381377022e+00 5.5036680652109728e+00 6.3516811115180936e+00 1 -1 0
399 45 1 1.1000000000000001e+00 6.4063440599875836e+00 2.4617019918565570e+00 4.2607702369564695e+00 -1 1 0
28 4 1 1.1000000000000001e+00 1.8756329242216885e+00 6.8929865206800374e+00 9.5810023106388940e+00 1 0 0
29 4 1 1.1000000000000001e+00 7.0501882991298563e+00 6.6428271236971428e+00 9.9252714362269057e+00 0 0 0
441 49 2 -5.5000000000000004e-01 7.4819624070386839e+00 2.1789607266304061e+00 5.4121798191673225e+00 -1 -1 -1
241 27 2 -5.5000000000000004e-01 6.9965418628223199e+00 3.2031192519409841e+00 7.8552177186829679e+00 0 0 1
533 60 1 1.1000000000000001e+00 9.7073178541298635e+00 6.1729477858436139e+00 4.7432819697031903e+00 -1 1 1
197 22 2 -5.5000000000000004e-01 9.4206654017399298e+00 3.5866490010363519e+00 6.6093186885281101e+00 -1 0 0
236 27 1 1.1000000000000001e+00 8.1663666499472978e+00 2.6058431373036717e+00 6.8220792816719049e+00 -1 1 -1
11 2 1 1.1000000000000001e+00 3.3509096481345608e+00 6.8191334319028565e+00 6.8633616276996934e+00 0 -1 1
490 55 2 -5.5000000000000004e-01 3.0833027810885363e+00 6.7447097698562990e+00 8.4471895444571530e+00 0 0 1
258 29 2 -5.5000000000000004e-01 8.8192392418940138e+00 6.7713943607872045e+00 6.0141504481173662e+00 0 -1 1
5 1 2 -5.5000000000000004e-01 1.0056993824925868e+01 1.3249432332294656e+01 5.5896213564128516e-01 -1 0 0
272 31 1 1.1000000000000001e+00 4.8533642591887620e+00 1.1632445552254866e+01 1.0235319672781952e+01 0 -1 -1
454 51 2 -5.5000000000000004e-01 7.8934488965824254e+00 7.1953348617436674e+00 8.5439347869072062e+00 1 0 2
283 32 2 -5.5000000000000004e-01 3.0533185529807723e+00 1.0377172818100769e+01 3.9163873535782181e+00 1 0 1
153 17 2 -5.5000000000000004e-01 1.6444550059392165e+00 8.1505856881421934e+00 4.0852786832739145e+00 0 1 1
76 9 2 -5.5000000000000004e-01 4.2223733795860730e+00 1.2650406150150550e+01 4.4277206573515651e+00 1 1 1
482 54 2 -5.5000000000000004e-01 5.6139122730993654e+00 7.8286775643279034e+00 4.0525876432963663e+00 0 -1 0
447 50 2 -5.5000000000000004e-01 4.0198737652949452e+00 8.0997609152632926e+00 6.2645055211112570e+00 0 0 1
334 38 1 1.1000000000000001e+00 5.3359462869274283e+00 8.5863364895423899e+00 5.4554635428258500e+00 0 0 0
387 43 2 -5.5000000000000004e-01 6.5974240791505432e+00 8.1578160565435116e+00 6.3937730049270147e+00 0 0 0
552 62 1 1.1000000000000001e+00 9.6705555958860145e+00 1.0461964435065914e+01 6.0666982116979975e+00 -1 0 1
95 11 2 -5.5000000000000004e-01 9.4028297152108209e+00 1.0330297863845887e+01 4.4171908913350242e+00 -1 0 0
183 21 1 1.1000000000000001e+00 8.1181887805173254e+00 7.8416754862514377e+00 7.0160644683428357e+00 -1 -1 -1
413 46 2 -5.5000000000000004e-01 8.9506848927041762e+00 9.2192588704843228e+00 6.8624605571543444e+00 0 1 0
365 41 2 -5.5000000000000004e-01 3.8883607335857215e+00 1.1181630937657173e+01 8.9849379141505263e+00 -1 1 1
131 15 2 -5.5000000000000004e-01 3.0880404477577699e+00 1.1190668496414798e+01 6.4406529297114528e+00 0 1 -1
30 4 1 1.1000000000000001e+00 2.6764123651130083e+00 1.1506329896490671e+01 7.9659654041502410e+00 1 0 0
502 56 2 -5.5000000000000004e-01 6.1078050366535868e+00 1.2471099142528024e+01 9.6100552036977671e+00 1 0 0
505 57 1 1.1000000000000001e+00 3.8961325420512636e+00 1.1183834266859284e+01 5.0081327578627430e+00 0 -1 0
391 44 2 -5.5000000000000004e-01 5.2013854786581293e+00 1.0248860937211921e+01 5.3046437224153085e+00 0 1 0
142 16 2 -5.5000000000000004e-01 9.0657320478972476e+00 1.1935359539945319e+01 6.5839328843813574e+00 0 1 -1
251 28 2 -5.5000000000000004e-01 2.4162675592409957e+00 1.3130422777963096e+01 8.0904547367959800e+00 1 0 -1
194 22 2 -5.5000000000000004e-01 1.3135354960197496e+00 1.0696688212937218e+01 8.4639018076089361e+00 1 1 1
211 24 2 -5.5000000000000004e-01 2.4481478706766597e+00 1.7861645255625948e+01 6.7878138686187439e+00 1 -1 1
19 3 1 1.1000000000000001e+00 9.3619546444425463e+00 1.3433071528204998e+01 7.2206571514045654e+00 0 0 0
485 54 2 -5.5000000000000004e-01 5.7362142606924849e+00 1.9200263421203211e+01 3.4114056890441025e+00 1 -1 0
227 26 1 1.1000000000000001e+00 8.8043889777104631e+00 1.7758482698273863e+01 7.7438875892055554e+00 0 0 0
233 26 2 -5.5000000000000004e-01 3.3062612810888359e+00 1.9224191676377551e+01 9.1008839241881514e+00 -1 0 0
170 19 2 -5.5000000000000004e-01 3.7903404802632208e+00 1.5203632106598008e+01 9.1928055599128928e+00 -1 0 0
442 50 1 1.1000000000000001e+00 5.1119704643269266e+00 1.5835476652575004e+01 1.0237754937777625e+01 0 -1 0
123 14 2 -5.5000000000000004e-01 4.9388589977984481e+00 1.8525862158364262e+01 7.2313222455102464e+00 0 0 -2
508 57 2 -5.5000000000000004e-01 7.2874118111643149e+00 1.7327675197027411e+01 7.4504326752837011e+00 0 0 1
205 23 2 -5.5000000000000004e-01 6.4220147283904643e+00 1.4895606897797524e+01 1.0115250519116092e+01 -1 -1 0
519 58 2 -5.5000000000000004e-01 5.4029497129050119e+00 1.7240157637427394e+01 9.5013632584773404e+00 0 1 0
495 55 2 -5.5000000000000004e-01 8.6852292871317438e+00 1.2798199640873769e+00 7.6260645808385989e+00 0 0 -1
424 48 1 1.1000000000000001e+00 3.4221416310662689e+00 1.8981388929934344e+01 7.4927204016014004e+00 1 -1 -1
135 15 2 -5.5000000000000004e-01 9.9860393258734383e+00 1.7195047211519071e+01 6.7755122720031027e+00 0 0 -1
404 45 2 -5.5000000000000004e-01 5.9557061849498591e+00 1.4617978079737725e+01 4.2889953879330882e+00 0 0 0
259 29 2 -5.5000000000000004e-01 2.0779406955336022e+00 1.6638222359214890e+01 4.2359493533199490e+00 0 -1 -1
219 25 1 1.1000000000000001e+00 5.9707173972586212e+00 1.7715744000447160e+01 8.1424741596065182e+00 -1 -1 0
53 6 2 -5.5000000000000004e-01 2.6070183552869022e+00 1.5356861259379752e+01 6.6397733330385078e+00 0 -1 -1
6 1 2 -5.5000000000000004e-01 9.0119611819020164e+00 1.7382628532145556e+01 9.2940547594959178e+00 0 -2 -1
223 25 2 -5.5000000000000004e-01 9.6705043047458403e+00 1.4625496949801292e+01 6.0951115133368869e+00 0 0 0
133 15 2 -5.5000000000000004e-01 8.1979685150991415e+00 1.3745545843151113e+01 8.3129760068003549e+00 0 0 0
200 23 1 1.1000000000000001e+00 2.9216130656043258e+00 1.4612713770405751e+01 7.9768683420851536e+00 1 -1 -1
431 48 2 -5.5000000000000004e-01 1.7155635257306900e+00 3.7538275691582985e+00 -2.9466251237899246e+00 0 0 1
54 6 2 -5.5000000000000004e-01 1.2489422857956001e+00 5.6192346377496500e+00 -8.4965039659152741e-01 1 0 0
317 36 1 1.1000000000000001e+00 1.0289228274598095e+01 1.4107110254137719e+01 -7.9075027404915799e-01 0 -1 0
320 36 2 -5.5000000000000004e-01 4.0056932869411881e+00 5.5127840198433153e+00 1.5898229053813015e+01 0 -1 0
299 34 1 1.1000000000000001e+00 4.7048963055630422e+00 6.3931445923493397e+00 1.4711784555434297e+01 0 -1 0
177 20 2 -5.5000000000000004e-01 6.3086826396356468e+00 6.2276769743241323e+00 1.4738468799791072e+01 1 1 1
180 20 2 -5.5000000000000004e-01 4.0564415277265189e+00 6.2068563204976748e+00 1.3276092401822069e+01 2 0 -1
337 38 2 -5.5000000000000004e-01 2.4133078286536360e+00 2.8310080668499755e+00 1.5295401601836058e+01 1 0 1
7 1 2 -5.5000000000000004e-01 6.7448398183510809e+00 3.8131859558245749e+00 1.3043056669262212e+01 0 0 -1
408 46 1 1.1000000000000001e+00 6.4135718935867239e+00 2.8458728627903365e+00 1.4213761730816815e+01 -1 1 0
286 32 2 -5.5000000000000004e-01 4.8583182683723276e+00 2.5130974829040071e+00 1.4114969831203041e+01 2 1 1
492 55 2 -5.5000000000000004e-01 2.3683049719113014e+00 6.8957726303028846e+00 1.1094324184066803e+01 1 0 1
346 39 2 -5.5000000000000004e-01 6.7722735707722386e+00 3.2235027438419959e+00 1.5764378978091877e+01 0 -1 1
165 19 1 1.1000000000000001e+00 1.4873091690360358e+00 3.0039800917562713e+00 1.1280155869726329e+01 0 0 -1
425 48 1 1.1000000000000001e+00 3.6891379413573455e+00 1.8581634658074777e+00 1.5014404492974119e+01 0 1 0
118 14 1 1.1000000000000001e+00 7.8933550715915901e+00 6.4265127937830950e+00 1.5079999840330759e+01 0 0 0
559 63 1 1.1000000000000001e+00 9.3074803882885302e+00 6.1676847897753744e+00 1.2195656731464107e+01 0 1 1
549 61 2 -5.5000000000000004e-01 8.9105285563459908e+00 6.3210833079981130e+00 1.3781151456732182e+01 0 1 -1
176 20 2 -5.5000000000000004e-01 8.1984619091584126e+00 5.2658250990060189e+00 1.6244999640990198e+01 1 0 1
521 58 2 -5.5000000000000004e-01 9.7110904591688207e+00 2.4920878938793187e+00 1.3288876308385925e+01 0 1 0
356 40 2 -5.5000000000000004e-01 9.9082738968449071e+00 4.6879584878637592e+00 1.1834115371547572e+01 1 0 0
477 53 2 -5.5000000000000004e-01 8.0553841740734704e+00 6.3693249051108616e+00 1.1156608129009971e+01 0 -1 0
540 60 2 -5.5000000000000004e-01 7.3545621412618347e+00 1.4626305782689393e+00 1.3935154012783812e+01 1 1 -1
544 61 2 -5.5000000000000004e-01 3.0521034867895742e+00 3.1089969684053234e+00 1.0792821837554415e+01 1 0 0
277 31 2 -5.5000000000000004e-01 1.4293519044239897e+00 1.5897337053787266e+00 1.1995161586343920e+01 1 1 -1
370 42 1 1.1000000000000001e+00 7.6228504962449977e+00 3.8770810168630510e+00 1.6999981688628903e+01 0 0 0
410 46 2 -5.5000000000000004e-01 1.3788352137677331e+00 1.0041741678671652e+01 1.4341011510448922e+01 0 1 1
481 54 2 -5.5000000000000004e-01 4.2528645567085688e+00 1.4188878749440801e+00 1.6450508715148516e+01 1 0 -1
389 44 1 1.1000000000000001e+00 3.0473084134154402e+00 7.3283177514926487e+00 1.2633536035855856e+01 1 0 0
186 21 2 -5.5000000000000004e-01 6.0222159322690256e+00 7.7758546533813924e+00 1.0460779207341613e+01 0 0 0
158 18 2 -5.5000000000000004e-01 5.3596622465196138e+00 1.0323547253429028e+01 1.1020258199179267e+01 -1 -1 0
60 7 2 -5.5000000000000004e-01 7.9193806325913556e+00 7.7818302481783777e+00 1.5998289287216860e+01 1 0 -1
87 10 2 -5.5000000000000004e-01 4.1132689989528988e+00 8.4615059320499864e+00 1.2275383292230439e+01 -1 0 1
58 7 2 -5.5000000000000004e-01 2.0312575915588664e+00 7.6514240718472868e+00 1.3893184869740553e+01 0 1 0
207 23 2 -5.5000000000000004e-01 4.5699730836188399e+00 7.8781277110835282e+00 1.5339036727642382e+01 1 0 0
501 56 2 -5.5000000000000004e-01 6.7456175510734502e+00 9.0836212093665800e+00 1.2712508696688014e+01 0 -1 -1
316 36 1 1.1000000000000001e+00 5.5887702573988669e+00 8.8576803369595183e+00 1.1649056532092160e+01 1 -1 -1
373 42 2 -5.5000000000000004e-01 4.0688442860613723e+00 9.9753073817180233e+00 1.6739861499047667e+01 1 1 0
276 31 2 -5.5000000000000004e-01 9.0531318318312870e+00 9.5112186674123880e+00 1.4145816349216012e+01 0 0 -1
289 33 1 1.1000000000000001e+00 7.7736584534510635e+00 1.0182231770334639e+01 1.3397600252712207e+01 0 0 0
409 46 2 -5.5000000000000004e-01 5.4095616754316991e+00 1.2748896452861455e+01 1.5888813036668195e+01 -1 -2 0
51 6 2 -5.5000000000000004e-01 2.5626765335982578e+00 1.2269543401049789e+01 1.3556503032211833e+01 1 -1 0
42 5 2 -5.5000000000000004e-01 2.0927033804076891e+00 1.1762036588452164e+01 1.6159703278458228e+01 0 0 -2
517 58 2 -5.5000000000000004e-01 3.9698729692505639e+00 1.2558922493493618e+01 1.1258684789782404e+01 0 -1 2
102 12 1 1.1000000000000001e+00 6.9113410478727433e+00 1.2432385491258378e+01 1.5518636773225246e+01 1 -1 -1
464 52 2 -5.5000000000000004e-01 7.0167146620231087e+00 1.1265513518087184e+01 1.4353585028295283e+01 0 0 1
547 61 2 -5.5000000000000004e-01 8.3658507474371344e+00 1.1010755803596075e+01 1.2121670138056741e+01 0 0 -1
15 2 2 -5.5000000000000004e-01 9.7943490720786777e+00 1.2663309523106388e+01 1.3331452539329193e+01 1 -1 -2
191 22 1 1.1000000000000001e+00 9.2569805431595125e+00 1.2283396378629782e+01 1.1840674313049634e+01 0 -1 0
452 51 1 1.1000000000000001e+00 1.5068957312019582e+00 1.1612960316834583e+01 1.4675992269580661e+01 1 0 0
568 64 1 1.1000000000000001e+00 4.4968280933881202e+00 8.4442661106633246e+00 1.6819013817168074e+01 0 0 0
446 50 2 -5.5000000000000004e-01 8.3827067846917718e+00 1.3365699546037417e+01 1.0964764898019991e+01 0 -1 0
550 62 1 1.1000000000000001e+00 3.2522070668809464e+00 1.3276275010918861e+01 1.2565056201003252e+01 0 0 0
514 58 1 1.1000000000000001e+00 1.6864797381598096e+00 1.5108753696267073e+01 2.1102829111048766e+01 0 1 0
511 57 2 -5.5000000000000004e-01 7.4542400097420183e+00 1.2043755422125251e+01 1.6987975355147221e+01 1 0 -1
164 19 1 1.1000000000000001e+00 8.7198207766327833e+00 1.9275368838581826e+01 1.3179678185016090e+01 -1 -1 -1
393 44 2 -5.5000000000000004e-01 3.6607726756755943e+00 1.8852214771338641e+01 1.1587343625478116e+01 0 -1 0
499 56 2 -5.5000000000000004e-01 4.4331803574378963e+00 1.4109562632435223e+01 1.3459105232861198e+01 0 -1 1
98 11 2 -5.5000000000000004e-01 6.6252529935617659e+00 1.5630036607413233e+01 1.3674121697450905e+01 0 1 -1
264 30 1 1.1000000000000001e+00 5.0018666449620408e+00 1.5597871579167800e+01 1.3333286270874536e+01 0 -1 0
268 30 2 -5.5000000000000004e-01 4.3289729726046655e+00 1.6359304317508236e+01 1.4551669977893807e+01 -1 0 0
445 50 2 -5.5000000000000004e-01 4.7167174781380155e+00 1.6070854492760851e+01 1.1768509985177349e+01 1 -2 1
69 8 2 -5.5000000000000004e-01 2.0378204733259926e+00 1.6425595228760468e+01 1.6098693036329710e+01 0 -1 1
172 20 1 1.1000000000000001e+00 3.6392309711040092e+00 1.6165912469316076e+01 1.6087274273250991e+01 0 -1 0
303 34 2 -5.5000000000000004e-01 3.0076651482575905e+00 1.8807771216065436e+01 1.4046891782942243e+01 0 -1 -1
119 14 1 1.1000000000000001e+00 2.4411804385757132e+00 1.8534885611385484e+01 1.2602847946422646e+01 0 0 0
294 33 2 -5.5000000000000004e-01 1.7469876957815837e+00 1.7011922437125129e+01 1.2575070211782418e+01 0 -1 1
518 58 2 -5.5000000000000004e-01 2.2297301407133516e+00 1.4406140071985531e+01 1.2047386845113053e+01 0 -1 0
439 49 2 -5.5000000000000004e-01 3.7341438706185595e+00 1.4634608073130913e+01 1.6561037661200618e+01 0 -1 1
78 9 2 -5.5000000000000004e-01 8.5912043997285146e+00 1.8804444625734252e+01 1.1652198559694472e+01 -1 -1 0
295 33 2 -5.5000000000000004e-01 7.6421363331808303e+00 1.3804098201748198e+01 1.5079767833942739e+01 0 -2 -1
498 56 1 1.1000000000000001e+00 7.8695359573841079e+00 1.5350617803003184e+01 1.4639089321027397e+01 1 -1 0
448 50 2 -5.5000000000000004e-01 9.1621405732946979e+00 1.5443412746277495e+01 1.3746565529953498e+01 0 -1 0
213 24 2 -5.5000000000000004e-01 9.4618615618374431e+00 1.8020166613800768e+01 1.3850023399736573e+01 1 -1 -1
473 53 2 -5.5000000000000004e-01 8.0684258297173184e+00 1.6328795126410508e+01 1.5870440916344322e+01 1 -1 0
406 46 1 1.1000000000000001e+00 9.5609183583738400e+00 1.7994446934378718e+01 1.0707595924450271e+01 1 0 1
304 34 2 -5.5000000000000004e-01 1.0080708515292853e+01 1.6763175525306465e+01 1.1645154326101030e+01 -1 -1 0
506 57 1 1.1000000000000001e+00 1.0157926963297152e+01 1.6631806541237303e+01 1.3283269458296834e+01 -1 0 0
248 28 2 -5.5000000000000004e-01 1.5644939592322207e+00 3.2909164454006641e+00 1.9169568494486413e+01 -1 1 0
126 14 2 -5.5000000000000004e-01 1.0070522026389296e+01 1.5730949201597704e+00 1.9479153061731349e+01 -1 0 -2
145 17 1 1.1000000000000001e+00 1.0151814901352740e+01 1.9415366699585874e+00 2.1049787078801891e+01 1 0 -1
99 11 2 -5.5000000000000004e-01 8.7539631422026449e+00 2.7860328196356927e+00 1.7470747610010161e+01 -1 1 0
487 55 1 1.1000000000000001e+00 3.3831911763780127e+00 5.8209452172236098e+00 1.7425607875888307e+01 1 0 0
196 22 2 -5.5000000000000004e-01 1.8699690515264660e+00 5.3506948561529963e+00 1.7553399442390216e+01 0 0 -2
73 9 1 1.1000000000000001e+00 4.8658777375216324e+00 2.9407278410500912e+00 2.1887586579473318e+01 -1 1 -2
524 59 1 1.1000000000000001e+00 5.5823246800052599e+00 4.8259575592554391e+00 1.9416547518359106e+01 1 1 1
44 5 2 -5.5000000000000004e-01 4.2168214535884587e+00 4.9616631532723448e+00 1.8514233165160501e+01 0 0 0
512 57 2 -5.5000000000000004e-01 5.4275613987157536e+00 3.9067066503672767e+00 2.0721774926684123e+01 0 0 0
563 63 2 -5.5000000000000004e-01 6.0403698845979923e+00 6.2599159887912368e+00 1.9841456620823131e+01 0 2 0
574 64 2 -5.5000000000000004e-01 6.7338472199409090e+00 4.1344931732322427e+00 1.8342247841164983e+01 0 1 1
40 5 2 -5.5000000000000004e-01 3.2545114762161038e+00 2.8620209337906330e+00 2.2000215066540868e+01 0 0 0
189 21 2 -5.5000000000000004e-01 5.3669796659605877e+00 3.5482334467539647e+00 2.3336219489198001e+01 0 1 -1
343 39 1 1.1000000000000001e+00 7.4921057484953488e+00 6.9481514753379194e+00 2.0042421255064536e+01 -1 0 1
382 43 2 -5.5000000000000004e-01 8.2588178999053810e+00 5.7646328406388436e+00 2.0832272078955654e+01 0 -1 0
417 47 1 1.1000000000000001e+00 9.6373319542551030e+00 4.8951539122518142e+00 2.0787418376733743e+01 0 1 0
384 43 2 -5.5000000000000004e-01 9.3566542302612490e+00 3.3389506515342546e+00 2.1212164364990688e+01 0 1 -1
154 18 1 1.1000000000000001e+00 2.1962281251921443e+00 2.4747649168377546e+00 2.3149089190676850e+01 -1 0 -1
325 37 1 1.1000000000000001e+00 9.7396919896895593e+00 1.5597022883256515e+00 1.7869455764618969e+01 0 0 0
429 48 2 -5.5000000000000004e-01 5.6275035432506284e+00 1.5393876030935583e+00 2.1466401879092995e+01 0 1 0
66 8 1 1.1000000000000001e+00 1.4318781946168806e+00 1.7436466997491340e+00 1.8601034833311314e+01 0 0 -2
47 6 1 1.1000000000000001e+00 3.9487886171826290e+00 1.8605396309378570e+00 1.0359608663810622e+01 0 0 0
188 21 2 -5.5000000000000004e-01 3.6496746423971000e+00 7.3633487593617826e+00 1.7653203703988055e+01 0 2 -1
557 62 2 -5.5000000000000004e-01 8.0785406178090131e+00 7.2112794986838695e+00 1.8596833741914228e+01 0 0 0
572 64 2 -5.5000000000000004e-01 1.2590383482048411e+00 8.5321479695665623e+00 1.6474261265400610e+01 2 2 1
555 62 2 -5.5000000000000004e-01 9.5417288952700190e+00 1.8757346175370039e+01 2.1919344348942328e+01 0 0 1
359 40 2 -5.5000000000000004e-01 1.3747829186615665e+00 1.1184171479161275e+01 2.1592070545650117e+01 1 -1 -1
375 42 2 -5.5000000000000004e-01 2.7927928730801561e+00 1.2493714443931811e+01 2.3417698056178203e+01 0 0 0
266 30 2 -5.5000000000000004e-01 6.2477156508538068e+00 7.7213655401782608e+00 2.3161072746131101e+01 -2 1 1
532 60 1 1.1000000000000001e+00 9.4342447293010476e+00 1.0053054310449461e+01 2.3176690070470610e+01 0 1 0
296 33 2 -5.5000000000000004e-01 7.8809379713987662e+00 9.8012443383692816e+00 2.3026704172671199e+01 1 -1 -1
72 8 2 -5.5000000000000004e-01 1.0137975310726645e+01 9.4207156724171330e+00 2.1884161373776962e+01 1 0 0
484 54 2 -5.5000000000000004e-01 5.6956627046441870e+00 9.7834679431176710e+00 2.1592242123696440e+01 1 1 -1
59 7 2 -5.5000000000000004e-01 5.9209390373693944e+00 8.3473879370976576e+00 1.7585507852445954e+01 1 0 0
529 59 2 -5.5000000000000004e-01 2.0596641767723041e+00 7.4885682278475381e+00 2.1616981549557067e+01 0 -1 -1
182 21 1 1.1000000000000001e+00 6.7713162002549714e+00 8.8826301348447956e+00 2.2240417379317709e+01 0 0 -1
214 24 2 -5.5000000000000004e-01 7.5037937805063262e+00 8.2296846271092026e+00 2.0990566106556887e+01 2 1 -2
381 43 1 1.1000000000000001e+00 7.5503686538467605e+00 8.2844619488251947e+00 1.7513794912490717e+01 1 0 -1
322 36 2 -5.5000000000000004e-01 7.9472568195295636e+00 9.7448665666306411e+00 1.8048106244115907e+01 1 -1 -2
262 30 1 1.1000000000000001e+00 3.0176411673877501e+00 1.1060697129819154e+01 1.7323968290390109e+01 0 0 0
281 32 1 1.1000000000000001e+00 2.6196986076343767e+00 1.2177195512289662e+01 2.1795377904808973e+01 1 1 -1
159 18 2 -5.5000000000000004e-01 6.1815574336498882e+00 1.1305422960426993e+01 1.9344925340645908e+01 -1 -1 -2
271 31 1 1.1000000000000001e+00 5.5611673825872163e+00 1.1278860562415984e+01 2.0863106614255745e+01 0 -1 -1
545 61 2 -5.5000000000000004e-01 3.8810918287438501e+00 1.2347175696796992e+01 1.7916715355465200e+01 -1 3 0
287 32 2 -5.5000000000000004e-01 6.3254763797268492e+00 1.2423607268832615e+01 2.1661924336653371e+01 0 1 -2
500 56 2 -5.5000000000000004e-01 3.9373257718899985e+00 1.1535359693577213e+01 2.1145355432109078e+01 2 1 1
235 27 1 1.1000000000000001e+00 7.5457272813651777e+00 1.1229219809376884e+01 1.8377508737830958e+01 1 0 -1
225 25 2 -5.5000000000000004e-01 8.6976174961191415e+00 1.2022988476370680e+01 1.9201765552446354e+01 0 0 -1
103 12 2 -5.5000000000000004e-01 2.0857710812196766e+00 1.0171494497155273e+01 1.8317468495789388e+01 0 0 -1
8 1 2 -5.5000000000000004e-01 9.8157246712482404e+00 1.1631611929556898e+01 2.3223016176842542e+01 1 0 -2
460 52 1 1.1000000000000001e+00 2.1810973194017347e+00 7.5944050815749504e+00 2.3242132143916091e+01 1 0 0
169 19 2 -5.5000000000000004e-01 2.3936430128695707e+00 1.3645502566612606e+01 2.1167462057364247e+01 0 1 -1
566 63 2 -5.5000000000000004e-01 9.3407292092304886e+00 1.6156753640845714e+01 2.1335750151670876e+01 0 1 0
308 35 1 1.1000000000000001e+00 6.3933688003667939e+00 1.3972240222775214e+01 2.1852392623193420e+01 0 -1 -1
310 35 2 -5.5000000000000004e-01 2.8227488557038387e+00 1.9016616114670857e+01 1.8519382138247330e+01 0 -2 -1
451 51 1 1.1000000000000001e+00 4.2328665027505226e+00 1.8565613542048638e+01 1.7872443306755706e+01 0 -1 1
195 22 2 -5.5000000000000004e-01 7.0947726451992423e+00 1.4489180791888971e+01 2.0429797640588649e+01 -1 1 -1
570 64 1 1.1000000000000001e+00 4.7610425234914331e+00 1.3497621309722629e+01 1.7158361146499473e+01 1 0 -1
340 38 2 -5.5000000000000004e-01 5.8803613645348474e+00 1.4193613683584672e+01 1.8102720501383711e+01 0 0 -1