LAMMPS data file via write_data, version 2 Aug 2023, timestep = 10000, units = real

1350 atoms
7 atom types
921 bonds
6 bond types
546 angles
9 angle types
74 dihedrals
14 dihedral types

-23.185714214536517 23.185714214536517 xlo xhi
-8.621403337446177 8.621403337446177 ylo yhi
-8.492918770742229 8.492918770742229 zlo zhi

Masses

1 15.9994
2 1.008
3 12.011
4 15.9994
5 1.008
6 15.9994
7 1.008

Pair Coeffs # lj/cut/tip4p/long

1 0.18479 3.165
2 0 0
3 0.056 3.58141
4 0.1 2.93997
5 0.035 2.38761
6 0.192 3.14487
7 0.046 0.40001

Bond Coeffs # harmonic

1 0 0.9572
2 222.35 1.53
3 308.79 1.1111
4 359.76 1.1415
5 427.715 1.142
6 544.635 0.96

Angle Coeffs # charmm

1 0 104.52 0 0
2 50 109 0 0
3 26.5 110.1 22.53 2.179
4 45 111.5 0 0
5 13.0258 109.4 0 0
6 35.5 109 5.4 1.802
7 55 108.89 0 0
8 75.7 110.1 0 0
9 95 109.7 0 0

Dihedral Coeffs # charmm

1 0.57 1 0 0
2 0.29 2 0 0
3 0.43 3 0 0
4 0.59 1 180 0
5 1.16 2 0 0
6 0.12 1 0 0
7 0.42 2 0 0
8 0.29 3 0 0
9 2.87 1 180 0
10 0.03 2 0 0
11 0.23 3 0 0
12 1.36 1 180 0
13 0.16 2 0 0
14 1.01 3 0 0

Atoms # full

544 161 1 -1.054 -18.889367342111992 -2.394336644950773 -4.287130559029753 0 0 0
545 161 2 0.527 -19.007255296953787 -1.4515324144070458 -4.4028328595592505 0 0 0
232 57 1 -1.054 -22.709131361978176 -5.996228782495731 -1.7284209095446768 0 2 1
234 57 2 0.527 -22.31747353111488 -6.276493803831884 -2.555647842719794 0 2 1
462 133 2 0.527 -19.436259726997033 -3.2420503844714306 -5.873966211462104 0 1 1
546 161 2 0.527 -19.757679500355465 -2.7169053072199896 -4.045735014217497 0 0 0
499 146 1 -1.054 -16.33784446052436 0.2950383711672533 -2.8681807580490295 0 0 1
225 54 2 0.527 -17.03279250824985 -2.154532412550653 -4.530036029031622 0 0 1
959 299 2 0.527 -16.787496513599528 -1.9680282890943275 -1.0725121610616286 0 0 0
501 146 2 0.527 -16.639298566453963 -0.34629505574135955 -3.5116323982149344 0 0 1
958 299 1 -1.054 -16.43038366986341 -2.696151634432451 -1.5809551481278152 0 0 0
960 299 2 0.527 -17.0685194689828 -3.4011211372057133 -1.4712823005415956 0 0 0
997 312 1 -1.054 -16.40514045420774 -6.94052032081141 0.2270392828341592 0 1 1
308 82 2 0.527 -17.523768775575927 8.291779134774613 -0.7987927301370616 0 1 -1
418 119 1 -1.054 -18.782445990188464 -5.647403833029845 -4.4880405290136025 0 1 0
419 119 2 0.527 -19.162500554623357 -5.0461107427942355 -5.128530713780648 0 1 0
420 119 2 0.527 -19.537392854734254 -6.033032519620088 -4.043502688185839 0 1 0
223 54 1 -1.054 -16.088315195281844 -2.042198069592403 -4.422109914001459 0 0 1
236 58 2 0.527 -17.3339173509743 -5.510441946004629 -3.5199860241823986 0 0 0
235 58 1 -1.054 -16.53320446146227 -5.698420624058706 -3.030283217843829 0 0 0
224 54 2 0.527 -15.930622553701598 -2.2147648113297462 -3.4938863740471806 0 0 1
233 57 2 0.527 -22.90055000043291 -6.811611971175526 -1.265068432668195 0 2 1
237 58 2 0.527 -16.836316457174732 -6.128757421750208 -2.2308029158527187 0 0 0
999 312 2 0.527 -17.044137597595245 -6.232832834099525 0.14283035285528634 0 1 1
981 306 2 0.527 -18.612499742575146 -1.876573385413308 0.5585879703240018 0 0 1
514 151 1 -1.054 -19.843896227336657 -6.5156484385127875 -0.6479489809747534 0 0 0
979 306 1 -1.054 -19.233849627953923 -1.987993911949843 -0.16098307641782306 0 0 1
516 151 2 0.527 -20.673764378639895 -6.172643456837089 -0.9795329437974685 0 0 0
723 220 2 0.527 -22.32965695042734 -3.254468281988392 -3.9577221493104986 0 1 1
721 220 1 -1.054 -21.46053105374318 -3.151998740595954 -3.5698863101176963 0 1 1
722 220 2 0.527 -21.520683090528145 -3.5978192204871977 -2.724987760601606 0 1 1
1715 551 2 0.527 -18.149055042859224 -7.049550384113175 -5.577054742039704 1 1 1
460 133 1 -1.054 -19.725646388359454 -3.8939230173494606 -6.512349167878154 0 1 1
529 156 1 -1.054 -21.97044808466925 -1.1844287094754193 -0.21559154846562478 0 1 -1
530 156 2 0.527 -21.033585197377516 -1.0084827985506513 -0.30295740750674227 0 1 -1
531 156 2 0.527 -22.015827966926746 -2.0725599850351513 0.138438416051331 0 1 -1
1636 525 1 -1.054 -21.199148682240974 -6.746278513770479 -3.7579322351643913 1 1 1
1637 525 2 0.527 -21.342009551989594 -6.746972416707301 -4.704419531110781 1 1 1
1638 525 2 0.527 -20.68255079405889 -7.534950780537944 -3.5926165205654845 1 1 1
438 125 2 0.527 -17.04054487262354 -8.217608700133257 -7.5838323958354295 0 1 0
461 133 2 0.527 -20.64704478091672 -3.6857102668194637 -6.66717400884841 0 1 1
1745 561 2 0.527 -18.372146900381956 -4.567200292097586 -7.506835483777868 1 0 0
436 125 1 -1.054 -16.399757541126224 -8.509780645844451 -8.232132192486032 0 1 0
299 79 2 0.527 -21.28169617666441 -0.31919716259875486 -4.9797892993516255 0 0 0
102 13 2 0.527 -19.613041974145183 -0.909048017613376 -1.5650178100157985 0 0 0
1639 526 1 -1.054 -18.946999068863025 0.13096144701859025 -4.5429614091117205 1 0 0
1579 506 1 -1.054 -22.315057367250887 -7.368196148806865 -6.453882521940646 1 0 1
1581 506 2 0.527 -22.252090997963172 -7.2859668419746795 -7.405470198677415 1 0 1
1580 506 2 0.527 -23.14614553625267 -6.948691154858998 -6.231211509153857 1 0 1
980 306 2 0.527 -19.611612779547468 -2.8560392483328743 -0.019631102781474397 0 0 1
1746 561 2 0.527 -16.96772082711962 -5.0971243002731015 -7.703835377794363 1 0 0
259 66 1 -1.054 -17.773395461872255 -0.38578006633270867 -7.519828876167973 0 0 1
261 66 2 0.527 -17.518947188506402 -0.021462271551733636 -6.672027301471991 0 0 1
500 146 2 0.527 -15.418434164796164 0.07315227239833355 -2.720704164537861 0 0 1
566 168 2 0.527 -13.113003363201061 -6.411509603885806 -4.170083598508972 0 0 1
401 113 2 0.527 -15.992821082832496 -1.0980636810752253 0.8272108479287095 0 1 0
1991 643 2 0.527 -14.867362791863439 -0.851506028562472 -5.8735700327058105 1 0 0
1007 315 2 0.527 -11.063862099883439 -6.944768287429938 -5.629742967191611 0 1 1
1990 643 1 -1.054 -14.223976986853126 -0.14322259601589593 -5.8983580481097375 1 0 0
422 120 2 0.527 -15.72463789139846 -6.946397669873757 -7.610940126915076 0 0 0
421 120 1 -1.054 -15.297878576809499 -6.12319365801565 -7.373438429468736 0 0 0
933 290 2 0.527 -11.815730577439858 -2.281452016740322 -4.063277203928389 0 0 1
423 120 2 0.527 -14.830612611851429 -6.320544593357368 -6.56166700342781 0 0 0
931 290 1 -1.054 -12.047337348016242 -1.77037075471062 -4.838765441843073 0 0 1
932 290 2 0.527 -11.207741715113048 -1.4748607623476238 -5.190955639583974 0 0 1
1006 315 1 -1.054 -11.230512268306667 -6.020506980206887 -5.8145091234047594 0 1 1
567 168 2 0.527 -14.271614695514069 -5.444336956162613 -4.28893905652701 0 0 1
565 168 1 -1.054 -13.699836760697483 -6.008247996643623 -4.809816650317998 0 0 1
598 179 1 -1.054 -12.667836644345828 -2.505061121024143 -7.415722500665746 0 0 1
599 179 2 0.527 -12.327840056032377 -2.434614910544365 -6.5237057900552635 0 0 1
616 185 1 -1.054 -9.511140347347606 -1.0133202772263443 -5.574959498270967 0 0 0
312 83 2 0.527 -8.821323723928804 -7.588987656417501 -4.310498365262601 0 0 0
254 64 2 0.527 -10.509962499777853 -4.180071639078004 -6.204185315249717 0 0 1
253 64 1 -1.054 -9.740140931210894 -3.6982310454471277 -6.506625345174594 0 0 1
255 64 2 0.527 -9.685826864442703 -2.941774507865465 -5.922659786873273 0 0 1
1511 483 2 0.527 -8.709768521972402 -4.540606507809784 -7.7049761664927185 0 1 2
193 44 1 -1.054 -14.057839413848614 -1.1715650568205769 -2.2975201612591896 0 0 0
434 124 2 0.527 -14.78789346865063 -6.837421231289976 -0.5263039817947375 0 1 0
435 124 2 0.527 -13.539315523353231 -6.987422690161252 0.3166597614098201 0 1 0
433 124 1 -1.054 -13.832423947908818 -6.847021468680556 -0.5836877008573191 0 1 0
1512 483 2 0.527 -8.115138777586791 -5.622299253842677 8.404385775964862 0 1 1
1008 315 2 0.527 -12.131255071052287 -5.876370891583574 -5.52436099042724 0 1 1
269 69 2 0.527 -11.296363011365028 -1.4767377354711781 -0.23582091303904562 0 0 1
310 83 1 -1.054 -8.8274148053905 -7.426798105607449 -3.3671525215786797 0 0 0
510 149 2 0.527 -8.350970081279442 -1.8568620584580842 -4.139424359363929 0 0 1
268 69 1 -1.054 -10.858577917760801 -0.6443937002143034 -0.4139853981156705 0 0 1
1056 331 2 0.527 -10.432416817536836 -7.063863860522076 -2.787966958409524 0 0 1
1992 643 2 0.527 -13.382024595907355 -0.5789759964053438 -5.766021135168161 1 0 0
194 44 2 0.527 -13.794903815928192 -2.0513236626532416 -2.5678330431079406 0 0 0
667 202 1 -1.054 -9.665074649205751 -7.197464735055737 -7.97377790188926 0 1 1
195 44 2 0.527 -14.433815593909028 -1.2907806398177248 -1.4253478616580901 0 0 0
1054 331 1 -1.054 -11.352124660281913 -6.80084819283889 -2.7524830411636643 0 0 1
1055 331 2 0.527 -11.659780495370127 -7.117720173185102 -1.9032580370002128 0 0 1
336 91 2 0.527 -10.645947064754708 -4.854420865372873 -4.01497589734822 0 1 1
1902 613 2 0.527 -8.768032427718264 8.401943268685331 -2.5393329095804003 0 -1 0
146 28 2 0.527 -14.953498582383181 -4.277047997521659 -1.9982308016292984 0 0 0
145 28 1 -1.054 -14.046088488842742 -4.378411095259264 -1.7107708240537631 0 0 0
147 28 2 0.527 -14.008211571108115 -5.2610686904474635 -1.342455902687381 0 0 0
334 91 1 -1.054 -10.334810635532724 -4.181025858824048 -3.410043479333903 0 1 1
335 91 2 0.527 -10.466793488849483 -4.559673417104617 -2.5408822259309174 0 1 1
270 69 2 0.527 -10.963814942312258 -0.1403803573651068 0.3929333899255205 0 0 1
311 83 2 0.527 -8.000787413368942 -6.975543052627712 -3.1958899925072055 0 0 0
509 149 2 0.527 -8.597996950796402 -3.248530175416371 -3.597211618711655 0 0 1
508 149 1 -1.054 -7.935393443193414 -2.5590031977364385 -3.6389172122137623 0 0 1
1515 484 2 0.527 -7.506219385951491 -4.368306579075141 2.324771444128693 0 0 0
1513 484 1 -1.054 -7.890285341105185 -4.151303242789195 1.4752686224333083 0 0 0
669 202 2 0.527 -10.178574068070766 -6.619904925060517 -7.408998125581906 0 1 1
867 268 2 0.527 -9.094205384409035 -0.8983161228591143 -1.024119127921848 0 1 0
865 268 1 -1.054 -8.162971179676257 -0.9690061718740415 -1.2341407049930488 0 1 0
866 268 2 0.527 -8.131017336839133 -1.5579840450436526 -1.98799591861889 0 1 0
934 291 1 -1.054 -12.10544525243862 -3.0764643927095907 -0.03143109125740651 0 -1 1
936 291 2 0.527 -12.808951782994109 -3.5478331842737774 -0.47769002342257494 0 -1 1
108 15 2 0.527 -8.522908600338779 -7.044843613428855 -6.446868606457064 0 0 1
106 15 1 -1.054 -7.7250641436007275 -7.002515426297533 -5.919667444967651 0 0 1
107 15 2 0.527 -7.563769470699567 -6.06625435427566 -5.8031901030955435 0 0 1
18 1 5 0.09 -1.7801585892220118 -4.206253939525382 -2.08121967410725 0 0 0
9 1 4 -0.34 -0.9808466526370871 -6.5226220099722685 -1.428358290590448 0 0 0
6 1 3 -0.01 -0.9218537514742522 -7.417034491667563 -2.139913536379261 0 0 0
1514 484 2 0.527 -7.1522648866281 -4.171665061215086 0.8660103940910844 0 0 0
1433 457 2 0.527 -6.094099706510708 -5.503303578984491 -3.4262197553145866 0 -1 1
10 1 3 -0.01 -1.8881005373729813 -6.583717616948158 -0.7140653952833205 0 0 0
7 1 5 0.09 -1.9009869707942961 -7.767221587360395 -2.5804080384548893 0 0 0
12 1 5 0.09 -2.953197642737077 -6.756842622398143 -1.0634055407776986 0 0 0
17 1 3 -0.01 -2.323938977041898 -3.591616603022522 -1.3264275332226978 0 0 0
20 1 3 -0.01 -3.50261978610369 -2.914232696063598 -2.093449493643667 0 0 0
21 1 5 0.09 -4.220564998946102 -3.8143133346163696 -2.32810675388155 0 0 0
1419 452 2 0.527 -6.635739951377847 -4.063918631369051 -6.106947320080245 0 0 0
1418 452 2 0.527 -6.788161389827064 -3.6130879058521863 -4.669786071893784 0 0 0
16 1 4 -0.34 -2.748619535893358 -4.34996438906425 -0.5540117665941322 0 0 0
19 1 5 0.09 -1.595273329286421 -2.8548061814283026 -0.7754956013275756 0 0 0
23 1 4 -0.34 -4.1370010084474025 -2.2119847917111892 -1.4045230652788447 0 0 0
13 1 3 -0.01 -1.987399397465829 -5.158445798423802 -0.08091902551454666 0 0 0
25 1 5 0.09 -5.854441294800601 -1.8588707918959209 -1.883197639766987 0 0 0
1417 452 1 -1.054 -6.500201618902516 -4.3529064379805495 -5.2045303402981125 0 0 0
219 52 2 0.527 -6.290650552381393 -8.257357170524905 -6.41078467901928 0 0 1
888 275 2 0.527 -3.53748808467698 -3.5118836594843073 -5.833294837789564 0 0 1
886 275 1 -1.054 -3.3185702695789843 -2.6104419804171917 -5.597389446246282 0 0 1
887 275 2 0.527 -2.550213149150835 -2.4030228949619836 -6.129258978417333 0 0 1
1308 415 2 0.527 -0.036129362061647186 -5.62820344728431 -6.452555925293876 0 0 0
1434 457 2 0.527 -6.550819437769821 -5.6893988162576346 -1.9948859007362643 0 -1 1
1432 457 1 -1.054 -6.524000416327869 -6.129968946313014 -2.8442430976965847 0 -1 1
762 233 2 0.527 -4.44409598290839 -7.438057293973676 2.3263133837151813 0 1 0
1107 348 2 0.527 -1.6236047108081308 -4.530650318355352 -5.260550002160166 0 0 0
1105 348 1 -1.054 -0.6989741130649065 -4.431317859735168 -5.033626042145306 0 0 0
1106 348 2 0.527 -0.522810485472391 -5.148761002385919 -4.4249863528341224 0 0 0
466 135 1 -1.054 -1.063764564841584 -1.7887658794941634 -7.21224307289494 0 0 1
467 135 2 0.527 -0.6823982781978941 -0.9377859097964896 -6.996409886447481 0 0 1
278 72 2 0.527 -4.56817625746579 -7.38591978009458 -4.058351235977549 0 1 1
277 72 1 -1.054 -4.0458203650475255 -7.244977662786433 -4.847998734129205 0 1 1
468 135 2 0.527 -0.427627086961774 -2.426064934313045 -6.88756920881532 0 0 1
279 72 2 0.527 -3.265928777766373 -7.784882353738833 -4.719418218663559 0 1 1
3 1 5 0.09 -0.6239296395554135 -6.981099366304483 -4.110312121043218 0 0 0
1 1 3 0.05 0.05681660447290682 -7.374257933172537 -3.3099408562666968 0 0 0
1950 629 2 0.527 -4.375107973978231 -2.1606577700729135 0.3061629383151203 0 0 -1
2 1 5 0.09 0.3882157396385253 -8.397793722850897 -3.6383846283896855 0 0 0
22 1 5 0.09 -3.0443086035376616 -2.4062477593076688 -3.0278695666995885 0 0 0
471 136 2 0.527 -5.904823990544852 -7.871831188852 -2.4652139603431493 0 1 0
469 136 1 -1.054 -5.434921501046183 8.545199120087704 -2.581334376927024 0 0 0
24 1 3 -0.01 -4.808292178664054 -1.4523345972244357 -2.0532137303247113 0 0 0
26 1 5 0.09 -4.7371765268720765 -1.4786832192846084 -3.1965699915485883 0 0 0
1005 314 2 0.527 -4.435175663857709 -1.231776767037478 -6.207533252390617 0 0 1
894 277 2 0.527 -7.303971907498521 -1.0105395672004631 0.31167889253799075 0 0 0
8 1 5 0.09 -0.6025487951004251 -8.408784723809585 -1.6525859467272905 0 0 0
317 85 2 0.527 -3.68461961671213 -5.780816848645484 -5.912759205915275 0 1 1
316 85 1 -1.054 -3.134542584660821 -5.113003431757383 -6.322231895780206 0 1 1
318 85 2 0.527 -3.4092439383117323 -5.104970551749283 -7.239142782957785 0 1 1
1447 462 1 -1.054 -1.3647828796066541 -8.53834181659198 7.910258507591255 0 1 0
1306 415 1 -1.054 0.2098739214332248 -6.2763170951886 -7.112587779131901 0 0 0
1307 415 2 0.527 0.17301673233842507 -5.800056021929466 -7.9420711539692 0 0 0
4 1 6 -0.65 0.9279727721978333 -6.62205254425246 -3.1241596250142933 0 0 0
5 1 7 0.42 1.7276561102155696 -7.001874559358751 -3.5609742322696833 0 0 0
1407 448 2 0.527 0.8153438934594739 -2.5855269151378453 -4.714748749363748 0 0 1
572 170 2 0.527 1.502036803111796 -7.096115262622972 -6.428586750504925 0 0 1
62 1 3 0.05 1.9286687402441025 -3.2301661465063196 -1.9562546724134142 0 0 0
66 1 7 0.42 3.2806534617106635 -2.119037188091787 -1.678408974009323 0 0 0
63 1 5 0.09 0.9420764275315108 -2.6729555346811447 -2.043429119826685 0 0 0
64 1 5 0.09 1.8856313469129375 -4.311069733958347 -2.4101763504411267 0 0 0
65 1 6 -0.65 2.8148524028983246 -2.532135233533645 -2.424372443772051 0 0 0
1221 386 2 0.527 5.072582009652205 -5.933037080653213 -5.739299050928702 0 0 -1
1652 530 2 0.527 5.603800195672893 -7.230764003124752 -7.358062888178917 0 0 0
1219 386 1 -1.054 4.368795634495612 -5.657901669003859 -5.15171257630497 0 0 -1
1220 386 2 0.527 3.6855250679375082 -6.317720651451902 -5.270110963125136 0 0 -1
711 216 2 0.527 5.4670891620898665 -6.8997260349815015 -1.2538979366643455 0 0 1
1425 454 2 0.527 3.599660341807418 -2.925383847019998 -4.054012860427348 0 -1 1
1423 454 1 -1.054 3.9508265192096985 -2.9540246910754577 -4.944021543590331 0 -1 1
1288 409 1 -1.054 5.355260414604864 -5.41087665902648 -2.255939003187084 0 -1 1
1424 454 2 0.527 3.9794398016562056 -3.8858678811974565 -5.16085101338698 0 -1 1
1651 530 1 -1.054 6.269010967214594 -7.050847005685108 -6.693685990683544 0 0 0
1289 409 2 0.527 4.937155049816553 -5.86272143869385 -2.988920965176874 0 -1 1
681 206 2 0.527 1.5733040605429807 0.03358826760690725 -5.052378404963658 0 0 0
864 267 2 0.527 5.656475383659867 -2.531012894930127 -5.08301757917409 0 0 0
1406 448 2 0.527 2.1156305960973683 -2.454264266488204 -5.478991412525584 0 0 1
1405 448 1 -1.054 1.329527652054665 -1.966555277771727 -5.233127463723168 0 0 1
862 267 1 -1.054 6.5984462626072755 -2.392866208724447 -5.182567202948022 0 0 0
1518 485 2 0.527 1.0741183405549641 -6.555183475004414 -0.7818608832159359 0 0 0
1083 340 2 0.527 3.7065732298668514 -2.7376598353185244 -7.706194587402347 0 0 0
1325 421 2 0.527 7.21533686603933 -5.233969648198457 -6.9641310530849445 0 0 0
1290 409 2 0.527 6.101827499722461 -4.957687251122725 -2.6477555566252766 0 -1 1
1653 530 2 0.527 6.055730931049581 -7.644366570094434 -5.973642700641761 0 0 0
2087 675 2 0.527 7.054562124455913 -0.7330955470880705 -4.957337508014421 0 0 0
1465 468 1 -1.054 6.067197307842633 -3.4072200002537647 -0.33961095664694696 0 0 0
1081 340 1 -1.054 4.571496887399704 -2.3692827174466142 -7.525946602764514 0 0 0
1082 340 2 0.527 4.579977307604722 -2.228888113830788 -6.579130036185646 0 0 0
1326 421 2 0.527 7.505613002670124 -4.109533742357808 -7.935314778192883 0 0 0
573 170 2 0.527 2.7600434192307937 -7.923170441717475 -6.587864960979889 0 0 1
571 170 1 -1.054 2.1815103446393245 -7.545081266936789 -5.9255936741875015 0 0 1
1570 503 1 -1.054 3.2817518895790485 8.601199217341092 -0.9050197259463353 0 -2 1
2149 696 1 -1.054 3.9870575430929662 -7.784406951878856 -8.123758515199574 0 1 1
2150 696 2 0.527 4.244020439579863 -8.619553241486058 8.471329969053581 0 1 0
1324 421 1 -1.054 7.437988881780946 -4.3037684921716615 -7.000466065354826 0 0 0
2095 678 1 -1.054 7.05941854194867 -0.6216389389871191 -0.3640531130152489 0 1 0
2151 696 2 0.527 3.5370489248494934 -7.318198026935461 8.15753693072271 0 1 0
1466 468 2 0.527 5.521875035083525 -3.9014226880080853 -0.9516813517869114 0 0 0
2097 678 2 0.527 6.883086356187047 -1.559049862770065 -0.4436397278865325 0 1 0
1550 496 2 0.527 6.945009209730877 0.8954647534363236 -3.218453488149402 0 0 0
1591 510 1 -1.054 6.175442063555913 -8.48253944294984 -4.521445051553054 0 0 1
1593 510 2 0.527 7.033040927582448 -8.164424864037889 -4.2392897041635 0 0 1
1551 496 2 0.527 6.811743002290676 0.5809025753895654 -1.7435933031061914 0 0 0
680 206 2 0.527 0.7703297245956335 1.0448899047207245 -5.842554741383146 0 0 0
679 206 1 -1.054 1.392233039763756 0.9711333643662758 -5.118630410790015 0 0 0
1516 485 1 -1.054 1.551566839783419 -6.693500680320362 0.03616806163271846 0 0 0
1517 485 2 0.527 2.338846066905262 -7.17211512549751 -0.22341755273448172 0 0 0
60 1 5 0.09 1.287661716363619 -3.8741677201109717 -0.04727259469104439 0 0 0
59 1 3 -0.01 2.25870728206932 -3.4551577475175996 -0.5213723677672544 0 0 0
58 1 4 -0.34 2.4586304135424726 -2.431453106825967 -0.050692226457160316 0 0 0
710 216 2 0.527 6.325657279505492 -8.028454707865869 -1.7837030756322507 0 0 1
709 216 1 -1.054 5.863697059664787 -7.732807404227442 -0.9992044196867127 0 0 1
61 1 5 0.09 3.1190511784775055 -4.219177205965176 -0.4663003532546206 0 0 0
1940 626 2 0.527 7.8174493148447795 7.8965739529315595 8.257564840518196 0 0 0
863 267 2 0.527 6.8128527409324136 -2.7975292064951134 -6.023109896183645 0 0 0
1234 391 1 -1.054 8.34706622196482 -7.1488037471885 -3.83957623831178 0 1 0
1236 391 2 0.527 8.288468471297353 -6.199662216381979 -3.9484813839993196 0 1 0
1488 475 2 0.527 9.781762160236909 -2.3351875344811726 -0.8940954908475129 0 1 0
1884 607 2 0.527 8.510910832204416 -4.436239754676255 -3.22199880714662 0 0 1
1487 475 2 0.527 9.142808192697267 -1.061779309205539 -0.3822555545187427 0 1 0
1486 475 1 -1.054 9.975725103360894 -1.4207446589476254 -0.6883187752921822 0 1 0
1968 635 2 0.527 8.547647587948727 -7.091309036168994 -6.266709926760351 0 0 0
1966 635 1 -1.054 9.30781367341229 -7.50288660212988 -6.677828857667691 0 0 0
1883 607 2 0.527 7.340074160541729 -3.7095874348231392 -3.84896500994882 0 0 1
1882 607 1 -1.054 7.579072044655064 -4.530948968073464 -3.419510241903006 0 0 1
383 107 2 0.527 10.03219520557819 -4.8631518419986985 -2.051589532847151 -1 0 0
384 107 2 0.527 10.907391757621319 -4.178080170452492 -3.0795242510684586 -1 0 0
382 107 1 -1.054 10.17860426208032 -4.792863546500369 -2.994919455259147 -1 0 0
191 43 2 0.527 12.844319639572099 -2.148302835127864 -3.048011672083306 -1 -1 1
190 43 1 -1.054 12.323532485047899 -2.9463490079803023 -2.9579641292593646 -1 -1 1
192 43 2 0.527 12.610945900044364 -3.503328216124854 -3.6814217546940577 -1 -1 1
783 240 2 0.527 13.080634471583934 -7.2628828036627535 -1.4842008782532066 -1 -1 1
781 240 1 -1.054 12.76703991411641 -6.624807186421972 -0.8433166882438758 -1 -1 1
782 240 2 0.527 13.377130086759557 -5.890934912344198 -0.9170921715299389 -1 -1 1
1614 517 2 0.527 10.786451470675608 -5.984131793684176 -4.518564858231012 0 -1 0
2027 655 2 0.527 13.457413409962797 8.52462345261632 -6.7451737087505395 0 -1 1
1612 517 1 -1.054 11.361265649759062 -6.554444492570397 -5.029026520753302 0 -1 0
2121 686 2 0.527 13.676619695783899 -0.17508128984954396 -3.937594814222636 0 0 0
2081 673 2 0.527 13.395423658905052 -7.75031402310953 8.48829482581858 0 0 -1
1701 546 2 0.527 12.577819661309007 -5.272001985151791 -5.075205199493276 0 0 0
2080 673 1 -1.054 13.306542980953203 -7.60265319282341 7.546731917080201 0 0 -1
1248 395 2 0.527 9.013349770503744 -3.8137187600599 -6.028999339073247 0 0 1
2119 686 1 -1.054 13.42126350365762 -0.44460635141098237 -3.0553288808920707 0 0 0
1613 517 2 0.527 10.776055357117698 -6.9962879151448 -5.6442956286626895 0 -1 0
2026 655 1 -1.054 13.534197578583935 -7.7717971395546215 -6.624251439890515 0 0 1
1699 546 1 -1.054 13.08199478644761 -4.461301207638946 -5.144300594003452 0 0 0
1700 546 2 0.527 12.656599290671878 -3.9735602985810905 -5.8495540786110185 0 0 0
1246 395 1 -1.054 9.795642744524002 -3.4200345492563082 -5.642602580710505 0 0 1
2120 686 2 0.527 13.131842042872009 0.36351824929564636 -2.631819039402907 0 0 0
332 90 2 0.527 10.405707589426449 -6.286141411235328 -7.761101233066691 -1 1 0
1541 493 2 0.527 9.633382492962511 -1.3465904448313983 -2.437127976415873 0 0 0
1247 395 2 0.527 9.479835039639454 -2.9880039433910914 -4.848971146593808 0 0 1
1452 463 2 0.527 13.277572365305282 -2.2638608906648106 -7.362076228566837 0 1 2
1450 463 1 -1.054 14.03666521918992 -1.6897966027185438 -7.259690463860248 0 1 2
1451 463 2 0.527 14.698010426661298 -2.2390959207256698 -6.838808201802113 0 1 2
2031 656 2 0.527 10.936145126353537 -3.0666974212814297 -6.898655298886299 0 1 1
2029 656 1 -1.054 11.510463130450788 -3.223842432926327 -7.648141416783311 0 1 1
2030 656 2 0.527 11.234204235648079 -4.074998977694456 -7.9878427025360885 0 1 1
86 8 2 0.527 14.018281282508973 -0.25094961722809117 -6.173784692374584 -1 0 1
1983 640 2 0.527 14.960615990365177 -6.210135412618969 -8.23295083800283 0 0 1
85 8 1 -1.054 13.828518822202419 0.6500095591601553 -5.912179482275215 -1 0 1
1235 391 2 0.527 8.929109806311786 -7.2687909254167735 -3.089178667732269 0 1 0
1967 635 2 0.527 8.9729984030473 -7.855953779052517 -7.50213686069903 0 0 0
1916 618 2 0.527 14.370747840156042 -4.175048130667992 -0.521309585716847 0 1 0
264 67 2 0.527 12.64331569079048 6.401157874124969 -6.437120184663948 -1 -1 0
2127 688 2 0.527 11.161359031016886 6.7034944719666285 7.692324396725727 0 0 0
1393 444 1 -1.054 9.80615147571443 -4.509021176814316 -0.37301908181403576 0 -1 1
1460 466 2 0.527 10.236667825745563 -0.7056645204661578 -8.43109518284794 0 0 1
2075 671 2 0.527 12.62364122269819 -3.0390866053276584 -1.145957770598427 0 0 0
1349 429 2 0.527 15.087894506873397 -6.229923252356793 0.8427977124449733 0 0 -1
1623 520 2 0.527 10.533904845350378 -6.962101863690531 -1.2710350184965957 0 0 0
159 32 2 0.527 22.423061258310362 -3.3017872060902285 -6.991721000832439 -1 1 0
157 32 1 -1.054 21.88919868785544 -3.953917547868768 -7.445531731946849 -1 1 0
158 32 2 0.527 21.170727766725406 -3.4510856440359623 -7.829219736687164 -1 1 0
985 308 1 -1.054 -21.97835435267762 -3.99791446821719 0.5487316025698075 0 0 -1
987 308 2 0.527 -21.82046848008484 -4.547505965587341 1.3163513461862753 0 0 -1
1605 514 2 0.527 21.46940140051182 -5.14673637841322 -6.294599243347551 0 0 0
986 308 2 0.527 -22.674643199148274 -4.448037868922241 0.07037067665159213 0 0 -1
393 110 2 0.527 21.905502253192942 -5.633296019203259 -2.6438896847375792 -1 1 1
2028 655 2 0.527 12.937448101153151 -7.572859163121278 -5.90273873998261 0 0 1
1431 456 2 0.527 14.793976329881353 -1.5161741900729186 -2.532329624323311 0 0 0
1249 396 1 -1.054 22.135152115444775 -2.8867314406251277 -4.509340677147581 0 1 0
1251 396 2 0.527 22.091320173793846 -2.270328818500958 -5.240324497366883 0 1 0
1250 396 2 0.527 21.253061251746082 -3.2540303661676324 -4.45194581081619 0 1 0
391 110 1 -1.054 21.163426210419992 -6.055873463047458 -3.0763482262130424 -1 1 1
1917 618 2 0.527 15.335583647071445 -4.69407945408433 -1.5661360209737385 0 1 0
1915 618 1 -1.054 14.97677002264642 -4.893726931820737 -0.7014720200668334 0 1 0
1376 438 2 0.527 19.194289541441222 -3.5049916335996 -6.305800645564846 0 0 0
2108 682 2 0.527 18.941980561957678 -4.739050963271975 -4.217205982877439 0 0 0
2107 682 1 -1.054 19.41935354325068 -3.931182529633463 -4.4060591413983206 0 0 0
1603 514 1 -1.054 21.497269925195177 -5.939511461601326 -5.758951467776049 0 0 0
1604 514 2 0.527 21.19737606730518 -6.6351194425092075 -6.344102266119488 0 0 0
2109 682 2 0.527 19.397312241643093 -3.4416382808478563 -3.583815311072411 0 0 0
1377 438 2 0.527 18.31402426376026 -4.489585706155624 -7.0458007101943405 0 0 0
1375 438 1 -1.054 18.817543215010346 -3.6846450839427156 -7.167217725569142 0 0 0
1803 580 2 0.527 14.959972828706803 -4.887061525290232 -3.939932097603937 0 1 0
1801 580 1 -1.054 15.625638792352255 -4.371464527062137 -3.4846299496406443 0 1 0
1802 580 2 0.527 16.269391898751948 -4.15997180939969 -4.16073799153667 0 1 0
2105 681 2 0.527 18.508867829978577 -6.7099719415409185 -1.832810092552613 0 1 0
1935 624 2 0.527 17.09123260351106 -6.526081517470673 -4.912851526501959 0 0 -1
1934 624 2 0.527 17.74964046578176 -6.531477268462351 -6.276093895397764 0 0 -1
1933 624 1 -1.054 17.57096000490985 -5.966985987361215 -5.524001039407709 0 0 -1
392 110 2 0.527 21.27345681235151 -5.844068213739462 -4.003318997355489 -1 1 1
2139 692 2 0.527 19.977255979122496 -2.4825971626400873 -1.586915401235773 0 0 0
2138 692 2 0.527 18.478530154258543 -2.5600958808795182 -1.7866527215598378 0 0 0
2137 692 1 -1.054 19.305088805379484 -2.5173069748422874 -2.2675496357942766 0 0 0
90 9 2 0.527 16.736955813584025 -4.345826849306489 0.04035151870967013 -1 0 0
89 9 2 0.527 18.127349865224488 -4.334458243943968 -0.5585923321571338 -1 0 0
88 9 1 -1.054 17.56264101729552 -3.861720732105968 0.052856374410382045 -1 0 0
1142 360 2 0.527 15.832700618295533 -4.152135248276406 -6.828629309678534 0 0 0
2022 653 2 0.527 21.72013334933802 -2.6763855940920402 0.5954164573442124 0 0 1
1141 360 1 -1.054 16.02780016007366 -3.321600306568854 -6.3946538687967225 0 0 0
1429 456 1 -1.054 15.575511351048803 -1.950533576979292 -2.1905617616062303 0 0 0
2104 681 1 -1.054 18.652914125490717 -5.764017238467915 -1.8086253922910682 0 1 0
2021 653 2 0.527 22.190514976919957 -1.46864377825269 -0.18683261986223698 0 0 1
1430 456 2 0.527 15.710085196861797 -2.696798749844678 -2.7746623596360322 0 0 0
2020 653 1 -1.054 21.579920863417293 -2.2047745136877177 -0.22565074427727438 0 0 1
1143 360 2 0.527 16.9061451834569 -3.0925626969749462 -6.6985357115998 0 0 0
2106 681 2 0.527 19.4131691572939 -5.622523810630925 -2.372783392026225 0 1 0
1981 640 1 -1.054 15.101691698816346 -5.266468534622778 -8.157080279578686 0 0 1
1254 397 2 0.527 21.432911789061855 -8.008771029663407 -2.6495671025513374 0 1 0
549 162 2 0.527 22.018322957507365 -0.4442522038751999 -7.249595264567865 -1 0 1
1520 486 2 0.527 19.923402522963187 1.2512554206508426 -5.223084884183738 0 1 1
548 162 2 0.527 23.052980551442595 -0.8037866727616505 -6.204508488547306 -1 0 1
547 162 1 -1.054 22.55120844664399 -1.1729056591367568 -6.93130014737603 -1 0 1
2069 669 2 0.527 19.892574588203217 -1.341017153514886 7.900686316158929 0 0 0
2070 669 2 0.527 19.27043413091431 -2.5333367591487077 -8.390068083097121 0 0 1
2068 669 1 -1.054 19.904811337010685 -2.2979324743741776 7.918703631747984 0 0 0
1982 640 2 0.527 14.311215344951776 -4.939432530782748 -7.7275780977653845 0 0 1
2101 680 1 -1.054 17.741448910648778 -7.9290898922272035 -7.41691175107953 0 1 1
2102 680 2 0.527 18.529199401793612 -8.407982092851741 -7.674551916417149 0 1 1
400 113 1 -1.054 -16.898043019609688 -0.9123676183355425 0.5774348103057783 0 1 0
402 113 2 0.527 -16.865975473451176 -0.0364787248318823 0.192772422882852 0 1 0
536 158 2 0.527 -22.803163060882916 0.3055680659903004 -3.2010031070572813 0 0 0
839 259 2 0.527 -15.869839075366936 1.1018641292940856 -5.988733242720173 0 0 0
1714 551 1 -1.054 -17.942827680177043 -7.875531829132956 -6.014559542161992 1 1 1
535 158 1 -1.054 23.145022595454567 0.43689990937692613 -2.352549126704224 -1 0 0
537 158 2 0.527 -22.63261234625539 0.028723892675818874 -1.722423841045389 0 0 0
1523 487 2 0.527 -20.76734981327446 8.4834290529967 -6.417109356590226 0 -1 1
298 79 1 -1.054 -22.027799951513767 0.22845215662453455 -5.224052527281437 0 0 0
300 79 2 0.527 -21.652461123254486 0.9111163610580526 -5.780202492266632 0 0 0
307 82 1 -1.054 -17.606717427841993 7.393256057897586 -1.118086056454744 0 1 -1
100 13 1 -1.054 -19.644630104278612 -0.06321563756436532 -2.0119522162639605 0 0 0
101 13 2 0.527 -19.282174324931137 0.5564153471973707 -1.3787839882567026 0 0 0
840 259 2 0.527 -16.654519448702573 2.39604521067044 -5.954220424085871 0 0 0
1524 487 2 0.527 -20.733412630131678 7.067159189887269 -5.883466636255843 0 -1 1