LAMMPS data file via write_data, version 2 Aug 2023, timestep = 50000, units = real

2196 atoms
7 atom types
1464 bonds
6 bond types
732 angles
9 angle types
0 dihedrals
3 dihedral types

-10.778428922347857 53.89214461173928 xlo xhi
-10.778428922347857 10.778428922347857 ylo yhi
-10.778428922347857 10.778428922347857 zlo zhi

Masses

1 15.9994
2 1.008
3 12.011
4 15.9994
5 1.008
6 15.9994
7 1.008

Pair Coeffs # lj/cut/coul/long

1 0.119432 3.40025
2 0 0
3 0.252656 2.84916
4 0.0663016 3.58118
5 0.0282937 2.37341
6 0 0
7 0.119497 3.1

Bond Coeffs # harmonic

1 442.161 0.972
2 1109.29 1.12
3 399.792 1.43
4 400.034 1.53
5 179.254 0.971
6 155.354 1.42

Angle Coeffs # harmonic

1 47.5559 103
2 30.1731 109.5
3 47.694 109.5
4 55.1139 111
5 65.472 111.3
6 54.9931 110.3
7 55.0234 111.4
8 180.46 109
9 30.1731 110

Dihedral Coeffs # harmonic

1 0.301147 1 3
2 1.41491 1 3
3 0 1 1

Atoms # full

514 172 1 -0.826 -0.3519106378452186 -9.125011723484704 -6.412871659548085 0 0 1
417 139 2 0.413 -8.238711937735728 -4.70785421506115 -2.3434598312683725 0 1 -1
626 209 2 0.413 -8.217851304604082 -8.197832630496432 -1.2572509880809175 0 0 0
601 201 1 -0.826 -0.031144368714480564 -9.427859418547413 -10.506778137085202 0 -1 0
875 292 2 0.413 -3.057590290844858 -7.5807686838744885 -0.06968878759543884 0 -1 0
594 198 2 0.413 -4.151411260289721 -2.240850178825749 -6.930803004402367 0 -1 1
249 83 2 0.413 -4.777241290390918 -5.535541288586354 -6.281044454885091 0 0 0
947 316 2 0.413 -2.731860256063314 -5.574127501480104 -2.8956446290292783 0 1 0
181 61 1 -0.826 -8.33642416401126 -5.108441239908175 -5.65782179600878 0 0 0
874 292 1 -0.826 -2.9868569132232885 -6.631763641383273 -0.3012394974736665 0 -1 0
1075 359 1 -0.826 -3.2328791723697705 -8.791896338175867 -7.936892379122771 0 1 1
728 243 2 0.413 -0.9083401326485898 -3.505769519851871 -4.89756680947439 0 0 0
248 83 2 0.413 -3.841213144587223 -4.648866624510655 -7.0035359018653285 0 0 0
538 180 1 -0.826 -3.614443058186419 -2.605832940762351 -1.1262745219074812 0 0 0
946 316 1 -0.826 -2.193645650717606 -5.2206491032965445 -3.6357166864394124 0 1 0
250 84 1 -0.826 -3.592784621159046 -1.4295516783077034 -5.300544077924595 0 0 1
237 79 2 0.413 -10.250120547502812 -0.25780823656403484 -7.8453387051457995 0 0 1
95 32 2 0.413 -9.969384555654884 -3.931415468876608 -6.107198607283232 0 1 1
727 243 1 -0.826 -1.1027204253015501 -3.1888496613473487 -5.811246901353413 0 0 0
247 83 1 -0.826 -3.80227150775049 -5.3282212493587835 -6.302694276880762 0 0 0
516 172 2 0.413 -0.7783384966488853 -8.3256951322912 -6.004349087123947 0 0 1
182 61 2 0.413 -8.386159821040081 -4.984125960024609 -4.66362072822284 0 0 0
369 123 2 0.413 -9.328118669683855 -3.4870601407157436 -9.824849463844147 0 0 0
449 150 2 0.413 -2.104946129962876 -2.881182960954682 -10.712732808466278 0 0 0
367 123 1 -0.826 -9.394672633347366 -2.862317690085054 -9.106515196819203 0 0 0
625 209 1 -0.826 -7.878935575793518 -7.528226143986183 -0.6208857396099177 0 0 0
416 139 2 0.413 -8.705377205134926 -6.100624004980993 -1.9551456664953832 0 1 -1
183 61 2 0.413 -7.734447134883119 -5.899429428121229 -5.55695564285791 0 0 0
627 209 2 0.413 -7.077163638687913 -8.088181641814078 -0.39370090477082975 0 0 0
435 145 2 0.413 -6.936983810863991 -2.3645194286680837 -10.095782984151157 0 0 0
1076 359 2 0.413 -2.3808070384708415 -9.219324816948356 -7.745770222449142 0 1 1
65 22 2 0.413 -6.262717627934843 -6.848670113529375 -3.7931183881641246 0 0 0
252 84 2 0.413 -3.718854684530692 -2.0444878904371926 -4.5013334171198345 0 0 1
450 150 2 0.413 -2.745265160938647 -2.443914626085018 -9.256820066273848 0 0 0
66 22 2 0.413 -6.4074513497220735 -8.24438777362511 -4.380337839452852 0 0 0
64 22 1 -0.826 -6.9303891709377705 -7.404748085381341 -4.229935502394545 0 0 0
368 123 2 0.413 -10.160715983162198 -2.3587835192974556 -9.505800933491276 0 0 0
729 243 2 0.413 -1.4746765217182993 -2.291975801282458 -5.578534470137261 0 0 0
415 139 1 -0.826 -9.000406745947306 -5.36388504893333 -2.4766898355483704 0 1 -1
948 316 2 0.413 -2.4878234559621824 -5.745129258963448 -4.425275551122365 0 1 0
592 198 1 -0.826 -4.43787457648599 -2.7653542595628977 -7.724116335304037 0 -1 1
290 97 2 0.413 -10.370724979872573 -6.19970504697045 -4.302524749694264 0 0 1
593 198 2 0.413 -5.370511569054605 -2.545616669975999 -7.735130574619726 0 -1 1
840 280 2 0.413 0.0922065628154165 -2.280852405976571 -7.14448497845307 0 -1 1
448 150 1 -0.826 -2.0674810492913434 -2.2088116954494517 -9.944915328077329 0 0 0
1036 346 1 -0.826 -5.146210908842196 -9.59190845044269 -3.9223246318988956 0 1 1
1038 346 2 0.413 -4.207439088036263 -9.768258981471241 -4.102129723573089 0 1 1
839 280 2 0.413 -0.6228721992797972 -1.740564302677953 -8.311956169342514 0 -1 1
570 190 2 0.413 -1.8766921542889943 -2.271662071332063 -2.257446834963023 0 0 0
568 190 1 -0.826 -1.1718430604897083 -2.000287258603116 -2.9431542316192436 0 0 0
94 32 1 -0.826 -10.664099926221638 -3.362636133184509 -6.625568916546328 0 1 1
539 180 2 0.413 -3.0954039572264582 -3.428913476214527 -1.262212597294969 0 0 0
1037 346 2 0.413 -5.42694016234279 -10.429745914110855 -4.337800895564921 0 1 1
96 32 2 0.413 -10.11907303215778 -3.113226006843121 -7.421708293129994 0 1 1
1077 359 2 0.413 -3.6832737216034888 -9.50290232044457 -8.326434313628587 0 1 1
602 201 2 0.413 -0.7057274398314313 -8.71963450785696 -10.766366649112703 0 -1 0
569 190 2 0.413 -0.845911937409582 -1.1675491686289678 -2.6110740571945996 0 0 0
251 84 2 0.413 -3.8278237645394775 -0.5380564369654124 -4.944704415705825 0 0 1
515 172 2 0.413 -0.11351653131026573 -8.787170422119912 -7.255856462841255 0 0 1
540 180 2 0.413 -4.474929587277398 -2.966586136665371 -0.7650769067519434 0 0 0
1759 587 1 -0.826 -7.338387754100367 -2.9880904543991615 -1.6986872356003193 0 0 0
2357 786 2 0.413 -7.6788016768679626 -0.8325087653388277 -7.693240181322838 1 0 0
2108 703 2 0.413 -4.299812414735499 -5.967733431200633 -9.068557715092751 1 0 -1
2358 786 2 0.413 -7.84870167622249 -2.1126861609340963 -8.466547863791 1 0 0
2129 710 2 0.413 -8.78849695658247 -8.715408188578799 -3.127397192769018 0 0 0
1760 587 2 0.413 -7.514630627528653 -2.787390535869365 -0.7603363172999931 0 0 0
2109 703 2 0.413 -3.4061759483552194 -7.072782225601158 -8.84612840291394 1 0 -1
1315 439 1 -0.826 -1.0073391259761593 -5.630733031781904 -7.19525469825608 0 1 0
2130 710 2 0.413 -9.245763447047864 -10.079340459063415 -2.9089134751758534 0 0 0
1317 439 2 0.413 -1.0533447732708723 -4.849684521697089 -6.592131250785021 0 1 0
2107 703 1 -0.826 -3.600965309657731 -6.434070945115986 -9.583740719583439 1 0 -1
1480 494 1 -0.826 -6.004615379717503 -9.96914523881536 -10.621890208231635 0 1 1
2128 710 1 -0.826 -9.190573248004661 -9.297455842825768 -2.4527849301210836 0 0 0
2356 786 1 -0.826 -7.107490100116003 -1.6559267298640634 -7.937798826157556 1 0 0
1761 587 2 0.413 -7.059093466234323 -2.1155144705737907 -2.100031332404649 0 0 0
1316 439 2 0.413 -2.024021226065692 -5.628202311494746 -7.278483839030271 0 1 0
1543 515 1 -0.826 -8.905726848216485 -8.574216598516415 -10.604231704400364 0 0 1
1689 563 2 0.413 -6.595200777289726 -10.305760528060441 -8.312613467640158 0 1 1
3135 1045 2 0.413 -5.3379978319072166 -9.785524002439745 -0.6352423495730992 1 0 0
2626 876 1 -0.826 -10.312153628914686 -0.4797551235814126 -1.0272146871018997 1 -1 1
3420 1140 2 0.413 -4.90363082067725 -4.436857367559145 -4.026866764575876 1 0 0
3288 1096 2 0.413 -6.944506597562416 -5.363693045853022 -8.00524869034729 1 1 1
3572 1191 2 0.413 -6.989359007440818 -0.2473935011207331 -4.248301185396006 1 1 1
3133 1045 1 -0.826 -5.397695620984152 -8.923936384848437 -0.9652315168852255 1 0 0
3287 1096 2 0.413 -6.607700671852356 -6.945190863168991 -8.171752966197094 1 1 1
3286 1096 1 -0.826 -6.234044849477549 -6.04363826350235 -7.940010281055297 1 1 1
3418 1140 1 -0.826 -5.4683332540226885 -5.045282188229728 -3.4609358817849865 1 0 0
2560 854 1 -0.826 -9.572648133630025 -0.5619565320824567 -4.1947499357137765 1 0 1
2627 876 2 0.413 -9.750666060520466 -1.0625742958732651 -0.4141126228352121 1 -1 1
3569 1190 2 0.413 -3.854175397303237 -0.5207988616176618 -0.36361553945122793 1 0 0
2796 932 2 0.413 -1.1746899281750558 -5.053868943014017 -1.7534208509470233 0 1 -1
3134 1045 2 0.413 -5.441394451954764 -9.12581362155693 -1.964050692730405 1 0 0
3408 1136 2 0.413 -1.506951181739268 10.534313904382513 -5.113965243130298 1 -1 -1
3419 1140 2 0.413 -5.934645041210118 -4.521039927990868 -2.83632614777357 1 0 0
2794 932 1 -0.826 -1.2433438090267188 -4.537911853645284 -0.9255846096296771 0 1 -1
2795 932 2 0.413 -1.8136157919345735 -5.111878003045533 -0.33645078499206704 0 1 -1
2561 854 2 0.413 -10.503548374535512 -0.8749736874590912 -4.056633059813166 1 0 1
2628 876 2 0.413 -9.762315756557555 -0.39175662789413224 -1.7983698737749236 1 -1 1
3571 1191 1 -0.826 -6.478195532151837 -0.5430767166448938 -3.4948628256308325 1 1 1
2562 854 2 0.413 -9.51630090707922 -0.5961818409066861 -5.209552860088017 1 0 1
1545 515 2 0.413 -8.37460811850184 -9.326509736895082 -10.742501037176005 0 0 1
211 71 1 -0.826 -2.5622514721149496 7.892939563238368 -4.08534340887111 0 -1 0
1033 345 1 -0.826 -3.8597041543138664 1.544941423602559 -5.655956598197061 0 1 1
1190 397 2 0.413 -7.159496670088016 8.29056097693573 -2.1674111913761465 0 -1 0
110 37 2 0.413 -7.681870808359591 3.887435501902152 -7.405539654491202 0 0 0
719 240 2 0.413 -8.072255525181943 5.294323301185141 -3.45221910740743 0 -1 -2
31 11 1 -0.826 -0.8716265412848951 10.09000907242627 -8.470237713609833 0 -2 0
109 37 1 -0.826 -7.39783003707433 4.72580713315171 -7.840405092924533 0 0 0
496 166 1 -0.826 -5.204057241236466 7.07894464899508 -6.973456823050231 0 0 0
497 166 2 0.413 -4.584914068642589 6.34894818649056 -7.191103476244985 0 0 0
1025 342 2 0.413 -4.13303919166465 3.193114831753764 -8.364595521797726 0 1 0
1046 349 2 0.413 -4.425595586516693 6.403318165617108 -10.515331767469599 0 0 0
1191 397 2 0.413 -6.417775545679999 8.924203027753844 -3.207756166592814 0 -1 0
1024 342 1 -0.826 -4.581664237389244 3.6935939616146882 -7.64071047605357 0 1 0
548 183 2 0.413 -0.8822240596787392 8.195213592890923 -2.1202201334514044 0 0 1
144 48 2 0.413 -6.250605139106619 3.1373721107181343 -1.9185934644730889 0 0 0
747 249 2 0.413 -9.90334940662972 1.3371443545601363 -0.5355540399250032 0 0 -1
720 240 2 0.413 -7.586967801395433 4.054063405232519 -4.096838331435478 0 -1 -2
378 126 2 0.413 -8.441969306050428 1.725073710251296 -4.536098866385245 0 0 1
236 79 2 0.413 -9.938826828695746 1.1780121665175791 -7.50187339774603 0 0 1
1189 397 1 -0.826 -6.419727421719044 8.936343220677838 -2.1670927252686436 0 -1 0
32 11 2 0.413 -0.8540318764727104 10.373193246089585 -9.392654779044697 0 -2 0
1034 345 2 0.413 -4.517137675740447 2.0468960590504466 -6.192846697813138 0 1 1
143 48 2 0.413 -7.288928302039533 2.127854084387227 -1.5366305243476983 0 0 0
376 126 1 -0.826 -8.514452768882 2.5673664570619206 -5.053104649841359 0 0 1
148 50 1 -0.826 -0.3408576783923838 4.369083701270609 -0.36512687969715074 0 0 1
718 240 1 -0.826 -7.264637122781856 4.873192105620138 -3.6209304725061173 0 -1 -2
142 48 1 -0.826 -6.396419279103608 2.1525060768740314 -1.951461805491217 0 0 0
385 129 1 -0.826 -8.986324104084513 7.615654251121743 -2.865014775676113 0 0 0
498 166 2 0.413 -5.951772343705482 6.7006288570393515 -7.511227020535875 0 0 0
111 37 2 0.413 -7.619534952625598 4.568096155766122 -8.82133822335965 0 0 0
1035 345 2 0.413 -3.560990183890109 2.281403706789952 -5.063942622134622 0 1 1
213 71 2 0.413 -3.0195781277117746 7.292574614151377 -3.38159054603714 0 -1 0
387 129 2 0.413 -9.58555540860515 7.260675662767827 -2.208063434962053 0 0 0
1026 342 2 0.413 -5.246491960208291 4.25352744495153 -8.09574613898489 0 1 0
377 126 2 0.413 -8.622460973468083 2.236314862120251 -5.94650828102699 0 0 1
547 183 1 -0.826 -0.6494442251757206 7.91662643964893 -1.2680414139899625 0 0 1
212 71 2 0.413 -3.1840637446942877 7.625903407286376 -4.788565617925539 0 -1 0
33 11 2 0.413 -1.8399413414685863 10.045445310528706 -8.216073927659153 0 -2 0
235 79 1 -0.826 -9.512934194073068 0.23762376897836468 -7.431862330393296 0 0 1
386 129 2 0.413 -9.429396189283027 7.448283313149933 -3.708017277533994 0 0 0
150 50 2 0.413 -0.6144148441007093 5.3194945090053345 -0.42436889926316823 0 0 1
745 249 1 -0.826 -9.948081669406156 2.332615110359747 -0.35757617535384867 0 0 -1
1045 349 1 -0.826 -5.284833340590458 6.918251241944599 -10.686240273793423 0 0 0
1288 430 1 -0.826 -7.69644148573412 8.4292582978346 -9.357143541046002 0 -1 1
1687 563 1 -0.826 -6.456491387034649 10.436391830421883 -7.843566124953487 0 0 1
1590 530 2 0.413 -3.0894134675006057 4.427627822701005 -4.665607809048771 0 0 0
1289 430 2 0.413 -8.220103836603386 7.645307071626348 -9.336737511032766 0 -1 1
1588 530 1 -0.826 -2.359751495337001 4.073391741798645 -5.182355870354035 0 0 0
1290 430 2 0.413 -7.2174602273234285 8.273993279073462 -10.231018089052265 0 -1 1
1688 563 2 0.413 -7.129684559939626 9.75515777568216 -8.216638719162235 0 0 1
1589 530 2 0.413 -1.963651590777495 4.888273790457914 -5.563718782694089 0 0 0
2559 853 2 0.413 -6.377987528184434 4.7364125286794945 -0.2585840671141284 1 -2 2
2453 818 2 0.413 -9.340907358452121 10.069489604741907 -0.0916468975788245 1 -1 0
3365 1122 2 0.413 -1.6653824056075592 1.164221046421595 -6.335510940500138 1 1 0
3278 1093 2 0.413 -3.6277339586392827 8.770481543026392 -9.084627882753722 1 0 0
3450 1150 2 0.413 -4.577591283446338 5.984940328384038 -2.0029987162443064 1 0 0
3449 1150 2 0.413 -5.339667715988867 5.517644888599836 -3.21037728404362 1 0 0
3208 1070 1 -0.826 -2.265262471075701 6.591324420074109 -10.363232476143384 1 0 1
3532 1178 1 -0.826 -9.574780848115878 6.689161700057898 -6.258201000718092 1 1 1
3448 1150 1 -0.826 -4.4256793668436885 5.856589758805249 -2.9963383861577606 1 0 0
3584 1195 2 0.413 -2.9643989978429772 9.368569513154238 -1.449913704748397 1 0 1
3585 1195 2 0.413 -4.547178665285031 9.660432668023244 -1.5313744368989006 1 0 1
3366 1122 2 0.413 -1.201636095149702 2.4477553173783093 -5.563165910169406 1 1 0
3340 1114 1 -0.826 -6.216645473629534 9.408210605697722 -5.012013638157715 1 -1 0
3534 1178 2 0.413 -10.375395066411585 6.198218124629765 -6.468126353065639 1 1 1
3364 1122 1 -0.826 -0.7987201185588617 1.6055121660790306 -6.067842453770088 1 1 0
3568 1190 1 -0.826 -3.9496184438060027 0.44993527629610064 -0.334257784591772 1 0 0
3277 1093 1 -0.826 -3.6394791136028175 9.748704821498823 -9.094468269479423 1 0 0
2623 875 1 -0.826 -3.3578582230218004 1.5898422230320435 -9.850726380680378 1 0 1
3279 1093 2 0.413 -4.592147577076943 9.916064236376258 -8.910388278512269 1 0 0
3573 1191 2 0.413 -6.219697542833934 0.27608595543179604 -3.0015187762619604 1 1 1
3155 1052 2 0.413 -10.339194464876769 6.115926640580586 -9.933806899352332 1 0 1
3342 1114 2 0.413 -6.800938465807832 9.826793920212094 -5.61111464220486 1 -1 0
3341 1114 2 0.413 -5.862762635716777 8.65577945806368 -5.579771474549012 1 -1 0
2625 875 2 0.413 -3.2784334641444843 0.6159553252382874 -9.830451553323933 1 0 1
3533 1178 2 0.413 -9.023605417563935 6.301147437785648 -6.98950060405692 1 1 1
3154 1052 1 -0.826 -9.37373516841847 6.030535660158979 -9.973578475312662 1 0 1
3357 1119 2 0.413 -10.518866258294395 8.159038792736418 -7.210941968655343 1 0 0
3570 1190 2 0.413 -3.829737790056882 0.6697879415202124 -1.259497789553734 1 0 0
3156 1052 2 0.413 -9.313896490525543 5.4229781367077265 -10.776597298311543 1 0 1
2624 875 2 0.413 -3.8027647709174275 1.6664084671573836 -10.7209690197955 1 0 1
2557 853 1 -0.826 -5.470532756218738 4.816503700982096 -0.5415221140023618 1 -2 2
3209 1070 2 0.413 -1.4430198135202659 6.110676285425953 -10.193074271082406 1 0 1
3583 1195 1 -0.826 -3.6772113166863107 9.926630114942729 -1.1655557277133397 1 0 1
3577 1193 1 -0.826 -7.473594261741695 3.09470704134611 -10.67067385373923 1 0 1
3406 1136 1 -0.826 -2.4635051717880003 10.622697724254643 -4.838520545022675 1 -1 -1
3407 1136 2 0.413 -2.644295623611704 9.662930650172608 -4.808237001401491 1 -1 -1
149 50 2 0.413 -1.1664296021510232 3.9475171261144144 -0.14481666292986972 0 0 1
361 121 1 -0.826 2.674496574853862 -3.160323390543436 -9.107495502100132 0 1 0
200 67 2 0.413 3.0157011556307385 -9.71403271304042 -5.98602202171199 0 0 0
1032 344 2 0.413 3.0360169107733004 -6.446589238643419 -2.400026189185624 0 1 -1
1030 344 1 -0.826 2.425713958602625 -6.268057343999818 -1.6436750692582223 0 1 -1
1044 348 2 0.413 4.392120796374824 -3.4026480147188707 -5.3870109984163435 0 -1 -1
201 67 2 0.413 1.634333325218293 -9.373484581030397 -5.565753578482197 0 0 0
1180 394 1 -0.826 4.104967383345681 -7.036565910381274 -3.7030335759764164 0 1 -1
1042 348 1 -0.826 4.85564431158206 -3.9438333599106272 -6.041198293065065 0 -1 -1
603 201 2 0.413 0.39282302685953674 -8.802787707010367 -9.829086900127757 0 -1 0
363 121 2 0.413 2.0264618123618163 -3.724642539370098 -9.57396791277355 0 1 0
1031 344 2 0.413 1.6670508871789043 -6.6824247104870125 -2.1106031587090186 0 1 -1
1181 394 2 0.413 4.151427382692926 -7.876669609136343 -4.1372256465354305 0 1 -1
1182 394 2 0.413 4.9769220489405654 -6.915165979144071 -3.3491062850203868 0 1 -1
362 121 2 0.413 2.913644598923666 -3.8188053404270015 -8.401900674061217 0 1 0
199 67 1 -0.826 2.593887473266271 -9.22084200287249 -5.209502805173371 0 0 0
476 159 2 0.413 5.212885962316928 -7.943328995278325 -8.250495457348183 0 1 1
838 280 1 -0.826 0.16665293968860162 -1.5465526166773031 -7.810279539651594 0 -1 1
1670 557 2 0.413 3.512525667640592 -4.6027488837627075 -1.7914835643624514 0 2 1
1629 543 2 0.413 1.687941558897876 -6.691923637472906 -8.033140628454325 0 1 0
1628 543 2 0.413 0.1505963921306872 -6.740495764905953 -7.897924581297307 0 1 0
1701 567 2 0.413 3.5137293724626844 -6.483402631794502 -6.397823119998403 0 0 1
1671 557 2 0.413 3.3756668622072823 -3.238269394693397 -2.193887075420129 0 2 1
1627 543 1 -0.826 0.8747310266761907 -7.176044061887438 -8.392245754087302 0 1 0
1655 552 2 0.413 3.2218580320579946 -1.2547492386854184 -8.576272531574253 0 0 0
2186 729 2 0.413 -10.600913407904486 -6.572939084328871 -9.316372893776206 1 0 1
1470 490 2 0.413 1.3741885584470879 -10.37779454969634 -2.466349313968239 0 1 0
1684 562 1 -0.826 1.962727469660976 -2.5921684566423977 -3.3863776628589966 0 0 0
1700 567 2 0.413 3.9060580381225343 -5.219051493691321 -7.021120950811666 0 0 1
1669 557 1 -0.826 4.03964244247036 -3.830590756733983 -1.7472366415243528 0 2 1
1686 562 2 0.413 1.0401942699060172 -2.887191032483309 -3.4038612132117363 0 0 0
1654 552 1 -0.826 2.932916455040793 -0.3815864806403475 -8.382371968568988 0 0 0
1685 562 2 0.413 1.811801540363021 -1.674318236570036 -3.706406612561448 0 0 0
1699 567 1 -0.826 3.378575573481882 -6.0466424353354835 -7.246334671039822 0 0 1
1656 552 2 0.413 2.048197150366178 -0.6986593295697183 -8.03769100852167 0 0 0
806 269 2 0.413 3.5692074533694953 -5.983022111683967 -10.731416789952835 0 0 0
852 284 2 0.413 2.717864435445179 6.23628791247274 -4.850786629308594 0 0 -1
723 241 2 0.413 2.182591788329299 6.889194385357722 -8.911913191494941 0 -1 0
792 264 2 0.413 4.452419011713188 9.610195577483235 -2.162035199368635 0 -1 1
851 284 2 0.413 1.8240081823135785 5.163396646391462 -5.128362386492494 0 0 -1
1187 396 2 0.413 3.5677093622296816 8.858949783874337 -6.014062963587621 0 1 1
1186 396 1 -0.826 3.9756794879110284 8.021388797386063 -5.6945210136233655 0 1 1
1082 361 2 0.413 5.352464085600911 2.3861549703953173 -2.720394476930087 0 1 0
1188 396 2 0.413 4.312769230312705 8.359669319369011 -4.815143604352464 0 1 1
722 241 2 0.413 3.399624590595261 6.639012638023939 -8.02933614330038 0 -1 0
700 234 1 -0.826 4.154912018701996 3.2130603794477235 -0.07782753983993729 0 0 -1
549 183 2 0.413 0.3480934212322122 7.905880713926628 -1.3620782872968178 0 0 1
721 241 1 -0.826 2.96382130123288 6.295413982577919 -8.847728428025908 0 -1 0
791 264 2 0.413 4.034439468010412 8.295612193259473 -1.7494420224627056 0 -1 1
850 284 1 -0.826 2.5957703719537726 5.3066441190825735 -4.480094983878963 0 0 -1
790 264 1 -0.826 4.102095333074233 8.791482415063825 -2.6022403377544947 0 -1 1
526 176 1 -0.826 2.873639022676473 8.028147259367305 -0.04740773731364811 0 0 2
171 57 2 0.413 -10.684885441449591 5.496432672454098 -0.6451479944450149 0 0 1
254 85 2 0.413 3.412827839207333 0.17490427183611423 -10.222620145045616 0 0 0
829 277 1 -0.826 0.6246650357157932 5.693876945352223 -6.7967187253537364 0 0 0
830 277 2 0.413 0.10349779257904146 5.869910520901048 -7.59091433224333 0 0 0
831 277 2 0.413 0.979030670740233 4.877924201020857 -7.1816528628070095 0 0 0
1745 582 2 0.413 4.613371360623837 0.8337825553617613 -8.145060233540285 0 0 0
1469 490 2 0.413 2.4077671460931924 10.130997371232187 -2.914558354195041 0 0 0
2308 770 1 -0.826 4.117587051540312 1.635147693894611 -4.198881794499968 0 0 1
2310 770 2 0.413 3.5302695592109394 2.343571880743271 -3.856310526943524 0 0 1
1896 632 2 0.413 3.3192346726493582 4.3951521856028855 -8.40760062870938 0 0 0
2309 770 2 0.413 3.4473591285063776 1.128232775527545 -4.722526031479646 0 0 1
2096 699 2 0.413 0.10769286676776346 4.0366327097405215 -9.592867721007506 0 0 0
1894 632 1 -0.826 3.8551966250939493 3.57550565210615 -8.459333780038797 0 0 0
1468 490 1 -0.826 1.439656573446392 10.242971640193286 -2.7565866642645798 0 0 0
1895 632 2 0.413 3.853152581852953 3.3568103087513474 -9.444182813535154 0 0 0
2095 699 1 -0.826 0.04021847622473018 4.81625601714704 -10.175019644662804 0 0 0
3241 1081 1 -0.826 1.9392422084755907 10.223900819908785 -7.26350969287836 1 -1 0
3233 1078 2 0.413 0.12246460276583093 2.511175970320542 -7.27713947471671 1 0 0
3265 1089 1 -0.826 1.0923414636072124 0.3351123975122565 -4.108170503356362 1 0 2
3267 1089 2 0.413 0.5636118222698485 0.7265076422611418 -4.844137805307724 1 0 2
2806 936 1 -0.826 1.4713474052772 3.047811809092142 -3.1111662331301915 0 1 0
3242 1081 2 0.413 1.0961959078570516 9.989120173409095 -6.833719795036769 1 -1 0
2807 936 2 0.413 0.986110923493797 3.5697455552776134 -2.423775847898227 0 1 0
2808 936 2 0.413 1.9750354708122728 3.759448677224121 -3.6114365880933024 0 1 0
3266 1089 2 0.413 1.3398637647278235 1.080809925430147 -3.548289904268593 1 0 2
3232 1078 1 -0.826 0.6041987707397425 2.9149568981286293 -8.07507990639262 1 0 0
3234 1078 2 0.413 1.0831412340235431 2.106761558666271 -8.38742855698999 1 0 0
3243 1081 2 0.413 1.5918504159964897 10.633071804405528 -8.026774853832627 1 -1 0
2097 699 2 0.413 0.8144796741001166 4.758096934107433 -10.704184734003245 0 0 0
1482 494 2 0.413 -5.123702675516501 -9.488824383215714 10.756472623975188 0 1 0
881 294 2 0.413 -8.754046883132958 -2.7833522452177846 4.519640033377689 0 -1 0
743 248 2 0.413 -4.8762678621177535 -10.680290828687966 2.7226951294869632 0 -1 0
1199 400 2 0.413 -3.1877891687719 -10.647626503257733 10.577005082199918 0 1 1
410 137 2 0.413 -0.0044198238473658336 -0.9807850904292934 10.63525983734013 0 1 -1
552 184 2 0.413 -4.101902285451922 -8.484095639613345 4.68194949458044 0 0 0
1088 363 2 0.413 -4.545755566021328 -4.575913347098229 9.645132382939178 0 1 0
27 9 2 0.413 -9.511029833594566 -7.847572865847958 1.050671651645274 0 0 0
121 41 1 -0.826 -9.344176183345793 -1.713801579208214 8.830608516215012 0 0 0
203 68 2 0.413 -4.858546032863502 -4.019443064551542 1.9244077797092913 0 1 0
58 20 1 -0.826 -9.357373623310535 -3.887139390900959 6.901172445067591 0 0 0
204 68 2 0.413 -5.547248390140826 -5.395520776403238 2.023056544359836 0 1 0
123 41 2 0.413 -9.919082811414906 -1.066106441766749 9.30628456706923 0 0 0
231 77 2 0.413 -6.777014956686419 10.678195001637828 7.395615079480066 0 -1 0
550 184 1 -0.826 -4.165118317026454 -7.491199679727062 4.89982305007778 0 0 0
876 292 2 0.413 -3.751175538297651 -6.256084043697793 0.20928971689443898 0 -1 0
21 7 2 0.413 -4.042968003915413 -0.8987881483746758 8.492117500477377 0 0 0
1089 363 2 0.413 -3.4775623777316014 -5.211354891278702 10.487175247449159 0 1 0
122 41 2 0.413 -8.518520931862831 -1.1560883233424857 8.708951778629224 0 0 0
434 145 2 0.413 -5.904212142109385 -2.1293449233061263 10.332539583870513 0 0 -1
327 109 2 0.413 -2.4934584988709894 -5.617870227983381 4.7587836037690945 0 2 0
520 174 1 -0.826 -1.0957071578268405 -2.5658451541291143 1.728830205207089 0 2 -1
73 25 1 -0.826 -1.8862653535088807 -7.035450579719883 8.306314612389176 0 0 -1
521 174 2 0.413 -1.1824310924506811 -3.0571261756966166 0.8802635198310611 0 2 -1
26 9 2 0.413 -9.975601459448798 -8.630317895794246 2.281081413717846 0 0 0
234 78 2 0.413 -0.9372035518890218 -9.768350232871395 4.3892672476471635 0 0 0
202 68 1 -0.826 -4.9447893649385115 -4.865686042055916 1.4468091020064584 0 1 0
882 294 2 0.413 -7.856147403666263 -1.628239392303577 4.616253073005263 0 -1 0
325 109 1 -0.826 -1.7753060679520498 -4.980937764790966 4.454083577584884 0 2 0
74 25 2 0.413 -2.5138409906342094 -6.701659622009789 7.595019667744694 0 0 -1
59 20 2 0.413 -9.250043767524224 -4.539474671113742 7.584633730409202 0 0 0
25 9 1 -0.826 -10.32697498365413 -8.345383211746611 1.3301990400489832 0 0 0
762 254 2 0.413 -10.105663874399927 -5.25333730838312 5.726572898328929 0 -1 0
880 294 1 -0.826 -8.610663103408882 -1.9528001184154142 4.0658665026372685 0 -1 0
75 25 2 0.413 -2.6104036094025567 -7.0743326971786455 9.01143940701047 0 0 -1
522 174 2 0.413 -1.3776298493325214 -3.2085296980079505 2.411235574866968 0 2 -1
229 77 1 -0.826 -6.017757849035253 -10.772544640532747 8.02813852557825 0 0 0
742 248 1 -0.826 -4.308725987249194 -10.268826254224113 3.480073652103721 0 -1 0
760 254 1 -0.826 -10.670995804610232 -5.996215470655706 5.464082203776929 0 -1 0
60 20 2 0.413 -9.353932459870206 -3.0825397906033576 7.466044806709693 0 0 0
551 184 2 0.413 -4.605574771212394 -7.554545763758442 5.739067774823617 0 0 0
19 7 1 -0.826 -4.911002385124756 -0.7858582808887817 9.011049795733708 0 0 0
1198 400 1 -0.826 -3.084932786228552 -9.699693858893466 10.211306582971723 0 1 1
433 145 1 -0.826 -6.64337968567184 -2.7644911516054282 10.577565581802233 0 0 -1
1087 363 1 -0.826 -3.5680166956467243 -4.722323297338818 9.629283943765593 0 1 0
232 78 1 -0.826 -0.5624019902131376 -10.403532949018967 5.053449569853768 0 0 0
326 109 2 0.413 -1.7679036440840488 -4.256038052415853 5.1401233265377115 0 2 0
1200 400 2 0.413 -2.9561101582602394 -9.91232509486082 9.244280283693126 0 1 1
351 117 2 0.413 -6.910360715766929 10.650459645655765 4.3562778126973 0 0 -1
692 231 2 0.413 0.08296903972441783 -7.447062873250189 8.395690093970867 0 -1 -1
126 42 2 0.413 0.08969538728583082 -4.49696495489678 4.4176496371541845 0 0 -1
1647 549 2 0.413 -2.1868451225859644 -4.042029088348855 8.009772016492605 0 1 -1
1481 494 2 0.413 -6.243555584305842 -10.293683950375733 10.021476078901873 0 1 0
1218 406 2 0.413 -7.7564525319154605 -5.777137532100018 9.5827557690371 0 0 1
1216 406 1 -0.826 -6.832785150385625 -5.502159456584632 9.394905694692358 0 0 1
1646 549 2 0.413 -0.8777137763447627 -3.4653045978449946 8.042310449890227 0 1 -1
1601 534 2 0.413 -2.312965624664251 -0.6220659547716334 6.462821249124346 0 0 0
1645 549 1 -0.826 -1.6178966344620633 -3.5836865915330556 7.378404185527021 0 1 -1
1602 534 2 0.413 -2.768067560319416 -1.98561424941294 6.724341309085428 0 0 0
1600 534 1 -0.826 -3.1031769666473465 -1.098517241796607 6.57550921743147 0 0 0
1544 515 2 0.413 -9.674455758507982 -8.786225661095592 10.402819886808608 0 0 0
1217 406 2 0.413 -6.933110188392952 -4.604808264445198 9.704148879074847 0 0 1
2971 991 1 -0.826 -5.1576340194047035 -7.760496676459507 7.6365742096908455 1 1 1
3021 1007 2 0.413 -5.989862941084603 -1.9544410826821306 2.267732409125623 1 1 0
3020 1007 2 0.413 -5.527348260830962 -1.9336419893617958 3.713396640658738 1 1 0
3007 1003 1 -0.826 -9.232655820803203 -8.29436951737352 4.300158486429877 1 0 0
2973 991 2 0.413 -5.103890543952275 -8.668813628021468 8.038291804342844 1 1 1
3320 1107 2 0.413 -6.334214899135048 -2.310981083796202 6.853931733605766 1 0 -1
3480 1160 2 0.413 -6.987942568529547 -7.478707463205634 2.8279195595841067 1 -1 0
3478 1160 1 -0.826 -6.783457903571694 -6.539776932849257 3.0271019174330736 1 -1 0
2770 924 1 -0.826 -8.470027831359708 -1.8062649065275789 0.989825641313292 1 0 1
3479 1160 2 0.413 -6.318318324898996 -6.606331301213686 3.912511069301063 1 -1 0
2534 845 2 0.413 -9.616274891980481 -5.580435896088385 0.5454226806693327 1 0 0
2972 991 2 0.413 -5.7468838677880285 -7.315180558961158 8.259764776844321 1 1 1
2533 845 1 -0.826 -9.798829282603023 -5.28843140356267 1.4723760449337782 1 0 0
3019 1007 1 -0.826 -5.286487422228575 -2.1833686555357374 2.793676430871143 1 1 0
3321 1107 2 0.413 -5.375176012783065 -1.5335962382257655 6.08784684776726 1 0 -1
3378 1126 2 0.413 -2.198671869564251 -7.944927100562613 3.0520610931914653 1 0 0
3377 1126 2 0.413 -1.0850566702043238 -7.0411725783872345 2.7558822116371466 1 0 0
2535 845 2 0.413 -8.846553055473166 -5.0094758528665695 1.5742254760515628 1 0 0
3009 1003 2 0.413 -9.577192363473642 -7.502648476280287 4.668914952473786 1 0 0
3319 1107 1 -0.826 -6.214263109192366 -1.9792297807818588 5.9309325708329546 1 0 -1
3376 1126 1 -0.826 -1.212033444089954 -7.984167304848649 2.843346185027773 1 0 0
2771 924 2 0.413 -7.955980328587287 -0.9711537915551887 0.7821465688455191 1 0 1
3111 1037 2 0.413 -1.081025781304767 -0.22141203919804298 2.223260510033789 1 0 1
3008 1003 2 0.413 -9.82861296987609 -8.969360513722034 4.795287944958437 1 0 0
2772 924 2 0.413 -8.843504387729396 -1.6605301142738629 1.845612300665934 1 0 1
3139 1047 1 -0.826 -10.72435098315109 -4.955545665784328 10.333723514219912 1 1 0
3210 1070 2 0.413 -1.8948444621785043 7.430674502815371 10.769073972225264 1 0 0
732 244 2 0.413 -9.091880319363261 7.639783203351197 4.684379583154072 0 -1 0
502 168 1 -0.826 -1.7030698406981113 9.688314182201967 7.94233836945595 0 1 1
996 332 2 0.413 -5.839712952185591 3.135985674819672 7.437790008566552 0 -1 -1
55 19 1 -0.826 -4.515819971534194 7.132705269108417 7.628629859426987 0 -1 0
349 117 1 -0.826 -7.3894361111000455 10.517332356685262 5.201832429459891 0 0 -1