LAMMPS data file via write_data, version 2 Aug 2023, timestep = 200000, units = real

1647 atoms
5 atom types
790 bonds
1 bond types
395 angles
1 angle types

-12.120000000000001 12.120000000000001 xlo xhi
-12.120000000000001 12.120000000000001 ylo yhi
-20.2 20.2 zlo zhi

Masses

1 15.9994
2 1.008
3 28.99
4 35.453
5 26.9815

Pair Coeffs # lj/cut/tip4p/long

1 0.185199 3.1589
2 0 1
3 0.0469 2.4299
4 0.15 4.0447
5 11.697 2.574

Bond Coeffs # harmonic

1 0 0.9572

Angle Coeffs # harmonic

1 0 104.52

Atoms # full

127 0 5 0 -3.8912582597523127 -1.6831528089187386 -13.586136618162987 -2 2 0
153 0 5 0 -5.916613400788838 -1.7057914318406329 -11.509548047015267 -2 2 0
125 0 5 0 -5.960357591198677 -1.5792731656435686 -15.548696453406318 -2 2 0
151 0 5 0 -10.063517254919745 -1.750369811519611 -11.396231683436953 -2 2 0
121 0 5 0 -9.90666726815261 -1.7558406657254981 -15.573801461879839 -2 2 0
347 0 5 0 -11.99274062928757 -1.7371861984439514 -13.469780751574786 -1 2 0
123 0 5 0 -8.027429305580943 -1.6406196323646964 -13.452865843426954 -2 2 0
117 0 5 0 -1.8634720887008265 -5.805399463501392 -15.528559456594524 -2 2 0
334 0 5 0 -12.031536959730712 -3.7286079669054977 -15.49158866210185 -1 2 0
146 0 5 0 -7.916255441469768 -3.7026883813065186 -11.440454220860786 -2 2 0
110 0 5 0 -7.958651422653303 -3.713707746183592 -15.450422800835202 -2 2 0
112 0 5 0 -10.01666677008211 -3.6951078567144733 -13.390407680403822 -2 2 0
366 0 5 0 -12.006330187669676 -3.7665272875318023 -11.423305541239705 -1 2 0
116 0 5 0 -5.998022113987904 -3.676614769466303 -13.515516650333703 -2 2 0
145 0 5 0 -9.92821826315371 -5.765900230774672 -11.438336924458023 -2 2 0
111 0 5 0 -7.973612745427209 -5.7258834190093655 -13.467673945540433 -2 2 0
335 0 5 0 -12.013625290539522 -5.740800994432716 -13.490627826550678 -1 2 0
113 0 5 0 -5.997981242281317 -5.74093399251444 -15.430225739180678 -2 2 0
109 0 5 0 -10.031323967344433 -5.809374902741198 -15.393329440007504 -2 2 0
147 0 5 0 -5.888797311695364 -5.720335185406664 -11.49390751397399 -2 2 0
115 0 5 0 -3.933680471799873 -5.768412483222202 -13.500472028315434 -2 2 0
114 0 5 0 -3.9205546131018147 -3.8074983611977693 -15.44249909584505 -2 2 0
148 0 5 0 -3.8923549446671353 -3.6720829497069225 -11.610653569233369 -2 2 0
52 0 5 0 -3.9283579618481714 -7.730613509043774 -11.478784182459549 -2 2 0
30 0 5 0 -3.9333372528379273 -7.716751128791904 -15.652997464181144 -2 2 0
32 0 5 0 -5.988318236892156 -7.754591488272162 -13.507424327299594 -2 2 0
270 0 5 0 -11.943349714978451 -7.699709438080974 -11.455026175561017 -1 2 0
28 0 5 0 -10.005587942326818 -7.821264795718425 -13.464920623789402 -2 2 0
50 0 5 0 -7.978469849450235 -7.75897148078591 -11.40968334235816 -2 2 0
250 0 5 0 -11.96418369783763 -7.850900760040085 -15.439745990219823 -1 2 0
26 0 5 0 -8.013144484892104 -7.756810763924267 -15.445462745085926 -2 2 0
29 0 5 0 -5.991410251187653 -9.673955553697079 -15.48953716050731 -2 2 0
31 0 5 0 -3.9732850193924305 -9.78255609938944 -13.533311555640973 -2 2 0
25 0 5 0 -10.004454632157355 -9.791675901357277 -15.529271769419884 -2 2 0
51 0 5 0 -5.930309561261326 -9.77600403634701 -11.555420986465869 -2 2 0
251 0 5 0 -11.994784617479885 -9.802294727325505 -13.467456120218186 -1 2 0
27 0 5 0 -8.017799381122208 -9.804743324483212 -13.342576801441618 -2 2 0
49 0 5 0 -9.94025630375015 -9.873071727777479 -11.39591065604092 -2 2 0
33 0 5 0 -1.8917573244581964 -9.698928324390106 -15.456036634019123 -2 2 0
53 0 5 0 -1.9682719735883194 -9.726158849104966 -11.487837952328759 -2 2 0
129 0 5 0 -1.985121271395601 -1.6918878722967505 -15.612615990329417 -2 2 0
120 0 5 0 -1.8318069339470084 -3.7413384540373564 -13.539730337314085 -2 2 0
36 0 5 0 -1.9195191533390443 -7.719155573870409 -13.546037406987002 -2 2 0
149 0 5 0 -1.859497385235827 -5.712495929953935 -11.593354420616905 -2 2 0
155 0 5 0 -1.7889250025916077 -1.7442754978980493 -11.594071863339366 -2 2 0
702 90 2 0.5564 -11.3703959744615 -6.614963173728927 -3.2084304481025834 -1 2 0
14 0 5 0 -8.015046056387433 -11.783714975493387 -15.455790550964641 -2 2 0
264 0 5 0 -12.031850347342186 -11.81516685295782 -11.407264622355916 -1 2 0
16 0 5 0 -10.028919913764733 -11.839881921356337 -13.413925340152128 -2 2 0
24 0 5 0 -1.9824105970186903 -11.85056566973257 -13.427320559370328 -2 2 0
18 0 5 0 -3.950896885303176 -11.899750728994919 -15.383883043142875 -2 2 0
20 0 5 0 -5.94552921228463 -11.857421673543291 -13.464421572337113 -2 2 0
238 0 5 0 -12.04736299541448 -11.853367442294669 -15.521126333449066 -1 2 0
1494 354 2 0.5564 -11.535602260776706 -8.871260822989862 -4.473464733212414 -1 2 0
46 0 5 0 -3.998105299411141 -11.830979926378747 -11.459669482136418 -2 2 0
1953 507 2 0.5564 -1.3382855186673945 -11.904794695938541 -5.196001261609782 -1 3 0
796 122 1 -1.1128 -5.362455132918088 -12.030075256614683 -4.205368349236311 -1 1 0
1926 498 2 0.5564 -5.188672454610607 -2.3950951107775804 -1.4571521884829859 0 2 0
1718 429 2 0.5564 -3.1107010151661405 -0.5170572041657349 -4.837163589337573 0 2 0
1952 507 2 0.5564 -0.5053180061910584 -10.788164667523764 -5.7886181769306635 -1 3 0
752 107 2 0.5564 -7.665455134801915 -2.2879399917289684 -0.5623842283090427 0 1 0
1685 418 2 0.5564 -4.374435879619997 -11.064457344874251 -1.0119852345470952 0 3 0
1574 381 2 0.5564 -11.612765748597756 -1.171520080226483 -2.978106161711722 0 1 0
2055 541 2 0.5564 -6.339575976656523 -11.544063778571495 -5.85289490368652 -1 2 0
1584 384 2 0.5564 -8.336939011956183 -11.132090278541261 -8.248010579744246 -1 2 0
685 85 1 -1.1128 -0.25722258672574105 -0.9476833218892153 -8.348080694405295 -2 1 0
687 85 2 0.5564 -1.12377814666887 -1.3076231928277557 -8.537178368208886 -2 1 0
2358 642 2 0.5564 -0.7772913341420538 -10.03678760002737 -7.639891393641173 0 2 0
1925 498 2 0.5564 -3.9474765446123747 -2.976648475471502 -0.8144040094316698 0 2 0
1688 419 2 0.5564 -11.249670364844178 -9.843380855648778 -6.632618335904864 -1 2 0
1975 515 1 -1.1128 -5.841719820530513 -1.7813893325047199 -3.1967872775882107 -1 2 0
1684 418 1 -1.1128 -3.7689354180191206 -11.609745833404231 -0.5097307049903306 0 3 0
1302 290 2 0.5564 -3.061532330212598 -0.6673698311442176 -2.9267817416406734 -1 2 0
1583 384 2 0.5564 -9.639510048071685 -11.140820756642384 -7.476561170439914 -1 2 0
753 107 2 0.5564 -7.267048466165932 -1.860024036073121 -1.9588265352859178 0 1 0
971 180 2 0.5564 -0.6046891223155992 -6.375450237562917 -8.09334848112499 -2 2 0
505 25 1 -1.1128 -11.45437351047061 -4.687281563505602 -0.16667581352552333 0 2 0
2136 568 2 0.5564 -1.483495902067193 -5.959392292940658 -6.294368992944643 -1 2 0
950 173 2 0.5564 -3.369131850132659 -9.20206900863375 -4.59086582381753 -2 2 0
488 19 2 0.5564 -0.5532021039974354 -3.531414489570222 -8.750484468906503 -1 1 0
1951 507 1 -1.1128 -0.4621583735672706 -11.519944580917873 -5.1730952984067775 -1 3 0
2071 547 1 -1.1128 -0.6466505831589979 -2.07262512313386 -4.6294074724015655 -1 2 0
1285 285 1 -1.1128 -0.9860172343154876 -7.499418949791088 -0.6274742448416171 0 2 0
1187 252 2 0.5564 -9.109729649034428 -6.475936196805472 -0.6529403920157959 0 2 0
1492 354 1 -1.1128 -11.008381027803186 -8.394428190509066 -3.832448442217232 -1 2 0
730 100 1 -1.1128 -2.9545116367457123 -8.019913799760452 -3.0352795747821166 0 2 0
2054 541 2 0.5564 -5.628413080242698 -11.021246669522363 -7.082854912782598 -1 2 0
1617 395 2 0.5564 -9.215591190834324 -6.053710224653086 -7.172274765056854 0 1 0
1615 395 1 -1.1128 -9.910833220685916 -6.095805301992903 -6.515692013738011 0 1 0
479 16 2 0.5564 -4.086174315470386 -5.119111382603655 -3.8200024687282705 -1 2 0
745 105 1 -1.1128 -8.203797709068724 -9.173430947020735 -2.407821206111193 -1 2 0
949 173 1 -1.1128 -3.73361172441549 -9.606695851127013 -5.378051195553302 -2 2 0
1286 285 2 0.5564 -0.39348824603705285 -7.284435021139553 -1.3478383048988782 0 2 0
2142 570 2 0.5564 -1.7113219552242023 -4.062252756654485 -1.2557690685318568 0 2 0
925 165 1 -1.1128 -7.519722532352635 -8.579373525576337 -8.59015111313473 -2 3 0
2357 642 2 0.5564 -1.6262254802433835 -8.846848614058676 -7.245866734683625 0 2 0
1467 345 2 0.5564 -5.335169668348054 -10.66783977283642 -3.070433374190687 0 2 0
1606 392 1 -1.1128 -3.602246525004985 -3.2458614209518757 -6.412164826813821 -1 2 0
1582 384 1 -1.1128 -9.223532311610537 -11.492568669331147 -8.263624471492449 -1 2 0
1300 290 1 -1.1128 -2.7984159943433555 -0.363808525614373 -2.057957636302942 -1 2 0
1465 345 1 -1.1128 -5.292910178974042 -9.972901368614094 -2.4135400840380905 0 2 0
509 26 2 0.5564 -7.6572295425530275 -9.880348747085998 -5.7630909640938945 -2 2 0
1671 413 2 0.5564 -0.975819873769077 -1.3994952319021836 -1.957879995113213 1 2 0
2245 605 1 -1.1128 -11.855158600371185 -4.369762390493647 -5.642880128154171 1 2 0
2140 570 1 -1.1128 -2.585470628065073 -4.292772398369753 -0.9411939040129028 0 2 0
928 166 1 -1.1128 -5.3862835453103415 -7.7339464750907885 -6.412691490778547 -2 2 0
482 17 2 0.5564 -4.1547668539585345 -9.756009429434515 -9.26526306846574 -2 2 0
2378 0 3 1 -4.388852088844029 -5.503364549107148 -6.717706555317148 -1 2 0
1059 209 2 0.5564 -10.45838411329577 -3.4720857846469935 -3.1289402354597664 0 2 0
926 165 2 0.5564 -6.67218783467394 -8.954939949484467 -8.82863091112558 -2 3 0
1616 395 2 0.5564 -9.462239158184168 -6.341375368420317 -5.706563158220315 0 1 0
478 16 1 -1.1128 -3.2552583760005223 -5.5014980194371645 -3.5378812619959152 -1 2 0
538 36 1 -1.1128 -7.994739521015045 -6.552094531068023 -4.52746389945326 -1 2 0
44 0 5 0 -7.861812955760635 -11.880369039219373 -11.38259851083341 -2 2 0
1608 392 2 0.5564 -3.691602358881606 -2.542077099014081 -5.769564209980957 -1 2 0
1476 348 2 0.5564 -9.477330012058786 -10.80420633878571 -1.850925976296638 0 2 0
524 31 2 0.5564 -5.800914944612588 -0.1926244372297191 -7.7062916856073365 -2 2 0
2016 528 2 0.5564 -7.595968353120383 -5.372344980766555 -8.38827636838446 -1 2 0
506 25 2 0.5564 -11.514117629446813 -5.227294383274694 -0.9547433858191554 0 2 0
732 100 2 0.5564 -3.1494760531628088 -7.096112952178828 -3.1927970783701807 0 2 0
481 17 1 -1.1128 -4.657255452854036 -8.946575925596866 -9.17277415282615 -2 2 0
489 19 2 0.5564 -1.7910990249330085 -4.219539341362854 -9.28526981538543 -1 1 0
1977 515 2 0.5564 -6.443616574563416 -2.0955909605716854 -3.8714952284046156 -1 2 0
2247 605 2 0.5564 -11.106852099100225 -4.904427733270098 -5.908210593347579 1 2 0
483 17 2 0.5564 -3.9946063851823976 -8.259207623129123 -9.104543664976156 -2 2 0
480 16 2 0.5564 -2.6337482311241525 -5.257832993777295 -4.223873186815755 -1 2 0
639 69 2 0.5564 -10.280294683261806 -2.3735857450718676 -4.726625914851995 -1 2 0
1924 498 1 -1.1128 -4.794913081277181 -2.583746127213544 -0.6053318532986969 0 2 0
700 90 1 -1.1128 -11.738878328859254 -5.756766989508406 -2.998774023933098 -1 2 0
1466 345 2 0.5564 -4.467526615679594 -9.522691056602799 -2.593222526142281 0 2 0
860 143 2 0.5564 -2.9136557848221094 -11.277442584680214 -8.004928443524275 -1 2 0
637 69 1 -1.1128 -9.87571361481107 -2.268311049854449 -5.587708392653649 -1 2 0
2208 592 2 0.5564 -2.72678968452688 -1.978961130222857 -9.16152001912979 -1 2 0
1976 515 2 0.5564 -5.013702938364002 -1.6466532534764957 -3.6577262241781288 -1 2 0
956 175 2 0.5564 -4.831557564050083 -4.840399077898238 -9.161296305068594 -2 2 0
2356 642 1 -1.1128 -1.4861866454695125 -9.773874804090902 -7.0528814202135655 0 2 0
1959 509 2 0.5564 -11.401564996596504 -7.453482489085886 -9.071838027629413 -1 2 0
951 173 2 0.5564 -2.9844742999536047 -9.706380664862706 -5.965497038070158 -2 2 0
751 107 1 -1.1128 -8.021764215820202 -1.9261551959931391 -1.3737974620611195 0 1 0
1719 429 2 0.5564 -2.4226074129400454 -1.7006463890424415 -4.1909886343579466 0 2 0
523 31 1 -1.1128 -5.561532663719293 -1.0285308441459649 -8.106528910444437 -2 2 0
2135 568 2 0.5564 -1.3393093409437824 -4.462652135331685 -6.118656612197245 -1 2 0
2141 570 2 0.5564 -2.959373407462357 -4.827317834029773 -1.6416847067979201 0 2 0
1474 348 1 -1.1128 -9.684002927296783 -11.723774229827713 -1.6838530702205547 0 2 0
1226 265 2 0.5564 -8.277661323554609 -1.4860711226176775 -8.745936461924597 -1 2 0
540 36 2 0.5564 -7.95414984183504 -7.479334350512725 -4.7615851837859875 -1 2 0
1058 209 2 0.5564 -9.60958354267043 -2.4198706467483 -2.4475505800067077 0 2 0
1225 265 1 -1.1128 -7.860868907541538 -2.3310609060678553 -8.57710654416614 -1 2 0
1669 413 1 -1.1128 -0.20332041230596384 -1.8164310181197707 -1.5762508054962823 1 2 0
2404 0 4 -1 -2.645211589225482 -6.685431178419592 -8.243126275819371 -1 2 0
2015 528 2 0.5564 -8.06022436888287 -6.73854163265775 -8.846391009636552 -1 2 0
1188 252 2 0.5564 -8.909837992984121 -7.4822014231823335 -1.7662114342917559 0 2 0
487 19 1 -1.1128 -1.503838272553662 -3.438326491661618 -8.81259545258585 -1 1 0
2258 609 2 0.5564 -10.284428838414279 -4.680702252503948 -8.910768517190569 -1 2 0
2370 646 2 0.5564 -6.506531407010916 -5.525679112272959 -4.987498746449599 0 3 0
1227 265 2 0.5564 -8.583607912636136 -2.9586538725478406 -8.573310612707335 -1 2 0
1942 504 1 -1.1128 -6.904440830068843 -2.342803093643441 -5.635494830313874 -1 2 0
927 165 2 0.5564 -7.576532852559448 -8.697967449011013 -7.642026517312108 -2 3 0
2134 568 1 -1.1128 -1.4660281638686505 -5.273842520889802 -5.626574946982268 -1 2 0
638 69 2 0.5564 -9.693307793189764 -1.3310060068663987 -5.654186781151428 -1 2 0
930 166 2 0.5564 -4.9050776230051785 -8.398496889893837 -5.9196928041632075 -2 2 0
859 143 1 -1.1128 -3.786431491702018 -11.523353525852832 -8.311555477909033 -1 2 0
2014 528 1 -1.1128 -8.379955754682936 -5.860084659956967 -8.64067658758932 -1 2 0
2053 541 1 -1.1128 -6.500260326220287 -11.207850023042004 -6.734583499101266 -1 2 0
746 105 2 0.5564 -7.305252813456264 -9.450121273953172 -2.228120968477568 -1 2 0
539 36 2 0.5564 -8.392533046765138 -6.541575607478761 -3.656901469647935 -1 2 0
1717 429 1 -1.1128 -3.2880071389964196 -1.3548187728003496 -4.409437589410826 0 2 0
1057 209 1 -1.1128 -10.481151690628751 -2.568334045124653 -2.81438250001932 0 2 0
1607 392 2 0.5564 -2.909653025561173 -2.946516030150206 -7.00117481546123 -1 2 0
1186 252 1 -1.1128 -9.072926373817177 -6.552641147835777 -1.6063521369204892 0 2 0
510 26 2 0.5564 -9.103017612634183 -9.528330771778219 -5.484391276000856 -2 2 0
1944 504 2 0.5564 -7.73850419019175 -2.6832436162827014 -5.959024255512827 -1 2 0
1159 243 1 -1.1128 -11.554473085842199 -9.779554282923105 -8.925774902080581 -1 2 0
1689 419 2 0.5564 -11.210885548421453 -11.131571467336222 -5.838290299429638 -1 2 0
747 105 2 0.5564 -8.234214170857728 -9.058860247187237 -3.3576532099745338 -1 2 0
2259 609 2 0.5564 -11.071105716050106 -3.499363854092221 -9.437528465322977 -1 2 0
731 100 2 0.5564 -2.376654038911078 -8.016507166965273 -2.2721940750851357 0 2 0
1687 419 1 -1.1128 -10.692645326297402 -10.353760362605751 -6.044852551376497 -1 2 0
525 31 2 0.5564 -6.390233861874874 -1.390307460803497 -8.420539752781352 -2 2 0
2368 646 1 -1.1128 -5.806594319762849 -4.876800502952088 -5.060155769555896 0 3 0
1943 504 2 0.5564 -6.71671504924715 -1.5922945986618184 -6.1991680011738595 -1 2 0
1957 509 1 -1.1128 -11.651866504936644 -6.610350499282324 -8.6940704553844 -1 2 0
2388 0 3 1 -11.511660376621611 -2.583754206885672 -7.167142060691863 -1 2 0
2257 609 1 -1.1128 -10.362777147186753 -3.729624704374951 -8.83629671279555 -1 2 0
955 175 1 -1.1128 -5.493287400220405 -4.651611283362509 -8.49593632294487 -2 2 0
508 26 1 -1.1128 -8.208804304359441 -9.211072351402748 -5.358042047455521 -2 2 0
957 175 2 0.5564 -5.517205339583792 -3.696034487209821 -8.445606747205705 -2 2 0
2369 646 2 0.5564 -6.263091678130837 -4.039060401377343 -5.137832287143894 0 3 0
1493 354 2 0.5564 -11.5320274006499 -8.410637357918787 -3.0313452774131977 -1 2 0
2207 592 2 0.5564 -3.914913059084152 -1.267290229377046 -8.550143147592108 -1 2 0
1475 348 2 0.5564 -10.607972360165054 -11.808648408793639 -1.9190322821210464 0 2 0
1958 509 2 0.5564 -10.95625116470073 -6.412317971767077 -8.067062576002291 -1 2 0
2206 592 1 -1.1128 -2.984493356258159 -1.1562413899441413 -8.745644230002256 -1 2 0
929 166 2 0.5564 -5.291056095014293 -7.998168745860938 -7.3277601638275165 -2 2 0
1161 243 2 0.5564 -10.819458550347727 -10.103289022940091 -9.446521571187247 -1 2 0
1651 407 1 -1.1128 -11.720179025461102 -0.9483768238443874 -9.022782105501973 -1 1 0
507 25 2 0.5564 -11.379622214041028 -3.791215271523091 -0.49486791247406037 0 2 0
701 90 2 0.5564 -11.77298483412 -5.298593428245763 -3.8385038508217315 -1 2 0
2320 630 1 -1.1128 -0.2713961151927609 -4.882898825294292 -2.3123032804894055 0 2 0
2322 630 2 0.5564 -0.3105753029318889 -5.817303643468873 -2.516227299136029 0 2 0
2073 547 2 0.5564 -0.32509944962217247 -1.235009146892321 -4.962927124735143 -1 2 0
798 122 2 0.5564 -4.595498299785024 -12.070685272086264 -4.77664906827346 -1 1 0
1939 503 1 -1.1128 -9.020104927468177 -0.07978561528288765 -8.746590513219447 -1 2 0
1940 503 2 0.5564 -9.881010627298393 -0.3394060927828092 -9.074721928766008 -1 2 0
1160 243 2 0.5564 -12.058983017276168 -10.563668494432083 -8.70927810282386 -1 2 0
2321 630 2 0.5564 -5.097119242034997e-06 -4.469568619976547 -3.131899049345971 0 2 0
1455 341 2 0.5564 -2.923518914785502 -4.982200548747188 3.8967121688995214 1 2 0
1251 273 2 0.5564 -9.851588974283514 -4.730697991007334 7.770551722475492 2 2 0
1668 412 2 0.5564 -10.702253785925953 -12.064843118652535 4.134306187308033 2 2 0
1889 486 2 0.5564 -11.225440368488385 -3.84447716478199 6.1993704498746744 2 2 0
1999 523 1 -1.1128 -7.434232700741649 -6.854170585525566 8.688428532530118 1 2 0
1362 310 2 0.5564 -12.059641250121537 -1.3773756015465315 8.549174319708692 2 2 0
1780 450 1 -1.1128 -2.9746767791508195 -5.412599403284491 2.0797702326688543 0 2 0
2343 637 2 0.5564 -1.9868052547385127 -9.917467025954274 2.3948773351078407 1 3 0
1592 387 2 0.5564 -6.526063071271332 -1.3662705679306948 5.225818664047867 1 1 0
1342 304 1 -1.1128 -0.7869113811447542 -5.4522902457255595 8.339983683877403 1 2 0
1000 190 1 -1.1128 -3.3748115588311 -2.1265801567814635 8.41458110690968 0 2 0
1067 212 2 0.5564 -4.089587043934298 -10.049671769293258 6.703108772271278 1 2 0
1277 282 2 0.5564 -2.203053609631077 -6.707172284017802 6.348494848722468 1 2 0
2285 618 2 0.5564 -5.252351483726348 -1.5026351679836598 7.137946485432995 2 2 0
495 21 2 0.5564 -9.98278334099581 -5.299979941437454 0.8034105708500905 -1 2 0
2324 631 2 0.5564 -3.750533684869626 -7.256188969842057 9.368410234233751 2 2 0
493 21 1 -1.1128 -9.199507181239762 -5.63019717424189 1.2434888394460268 -1 2 0
2000 523 2 0.5564 -8.16580104998434 -6.239414667725939 8.74421954124932 1 2 0
1349 306 2 0.5564 -6.920297617223455 -5.513373012222352 5.659741010603563 2 2 0
1142 237 2 0.5564 -9.746517259835068 -8.72335807022717 6.202115568074335 1 2 0
425 0 5 0 -2.5281836284010364 -9.13021261570148 15.438550260770851 2 2 0
1068 212 2 0.5564 -3.2465015815819775 -10.548906798500632 5.549042650091073 1 2 0
1887 485 2 0.5564 -7.543828286624252 -11.147052968765305 1.6922251576263347 1 2 0
804 124 2 0.5564 -5.15116956656244 -5.122025198877376 7.837903873484773 0 2 0
921 163 2 0.5564 -8.265834224113242 -0.3408822614536171 8.934725305346827 1 1 0
1344 304 2 0.5564 -0.8007066676464192 -4.534881878812907 8.612753886157282 1 2 0
768 112 2 0.5564 -6.478336350385561 -3.7244782812387656 1.5342681368125706 1 1 0
1453 341 1 -1.1128 -3.086414111992388 -4.359309848379967 4.605024548611613 1 2 0
2039 536 2 0.5564 -10.167379585929787 -6.906729396036996 1.8348840258765453 0 2 0
1841 470 2 0.5564 -3.4538989713340102 -7.9779815679607395 3.5004685664788475 1 2 0
1591 387 1 -1.1128 -6.882664446361751 -1.6361442446335586 4.379512081185153 1 1 0
1565 378 2 0.5564 -2.046317072259405 -9.82493298723667 9.292363802843864 2 1 0
1002 190 2 0.5564 -3.9618562090135803 -2.881266899472256 8.36920329127213 0 2 0
1454 341 2 0.5564 -3.2430461425712225 -4.906567149655096 5.374576675000647 1 2 0
2296 622 1 -1.1128 -8.234801332696016 -9.259852261648545 8.53404495734673 1 2 0
1649 406 2 0.5564 -1.2914056704766235 -7.2227625509134645 8.66423401231765 2 2 0
1640 403 2 0.5564 -5.541669149955881 -11.826790750723145 2.4019888162704595 2 1 0
393 0 5 0 -8.59924928148687 -9.212470247669563 13.472374698292523 2 2 0
2040 536 2 0.5564 -10.906455158008884 -7.323512291396655 3.0886583067619005 0 2 0
1838 469 2 0.5564 -8.657384014415431 -4.709873910191587 4.781384850767295 2 2 0
946 172 1 -1.1128 -4.271689801069252 -0.839318253968125 1.51085256871462 0 2 0
655 75 1 -1.1128 -2.3541915931670014 -1.927099802342427 5.768756070183538 -1 2 0
767 112 2 0.5564 -6.228679184658298 -3.5625092049855356 0.049905208937830646 1 1 0
1901 490 2 0.5564 -6.211316601173528 -10.947473689198226 6.238390803294234 1 2 0
1830 466 2 0.5564 -1.4564103795971413 -2.264010104134966 8.974283369483965 1 2 0
656 75 2 0.5564 -2.6507339243327457 -1.2339010307907365 5.1790360434987575 -1 2 0
870 146 2 0.5564 -11.767155315561135 -10.983331782110472 1.8936879144473673 0 2 0
766 112 1 -1.1128 -6.931348758894266 -3.637835917321449 0.6955157737895897 1 1 0
1236 268 2 0.5564 -2.30778498031265 -1.394892398097621 0.7663318277801928 -1 2 0
1782 450 2 0.5564 -3.781019818157375 -5.106585654120791 1.664564927502384 0 2 0
802 124 1 -1.1128 -5.028758193526515 -4.228778541477196 8.159399217208483 0 2 0
1001 190 2 0.5564 -2.927656881394785 -2.1191341834507864 7.568278142930776 0 2 0
2287 619 1 -1.1128 -7.778216956320903 -3.4468692811088877 8.905529033004104 2 2 0
2243 604 2 0.5564 -10.032550344478693 -10.04488937634549 8.54971067203221 2 2 0
1278 282 2 0.5564 -3.4669423266233337 -6.623872164907484 7.177677876871691 1 2 0
1276 282 1 -1.1128 -2.847389488055962 -6.084883337871327 6.6858660397226695 1 2 0
1829 466 2 0.5564 -0.054339512987252904 -2.066668235471427 8.438414444129972 1 2 0
1593 387 2 0.5564 -6.574590013695909 -2.535140691855831 4.264942103311357 1 1 0
2017 529 1 -1.1128 -8.864573887570387 -3.6563706544607255 6.2498012091129365 2 2 0
1828 466 1 -1.1128 -0.6725909920717645 -2.7453357879085183 8.709352825311724 1 2 0
2288 619 2 0.5564 -8.56993105139716 -3.9313637288896177 9.139384585988331 2 2 0
2289 619 2 0.5564 -8.093072302209057 -2.577176598917745 8.659090107294187 2 2 0
919 163 1 -1.1128 -8.549977703436396 -0.963638621131004 8.265642301879376 1 1 0
2325 631 2 0.5564 -5.125455422914266 -7.150186402714959 8.743704385841008 2 2 0
920 163 2 0.5564 -9.499747993784347 -1.014692656684455 8.373171045832061 1 1 0
1885 485 1 -1.1128 -7.055979525713162 -10.868009894618961 2.4670592897518566 1 2 0
1343 304 2 0.5564 -1.578790671955977 -5.557819577499194 7.812702597180996 1 2 0
2018 529 2 0.5564 -8.823887385348575 -2.790373793607467 5.844059578806676 2 2 0
2019 529 2 0.5564 -8.15871643241163 -3.6518883109207483 6.896319239719622 2 2 0
1435 335 1 -1.1128 -5.24938023218714 -3.6228797459254847 2.7663857311512285 1 1 0
1436 335 2 0.5564 -4.426028992510746 -3.7910039059245095 3.2247038443550675 1 1 0
1711 427 1 -1.1128 -5.035327411628623 -7.834183179638249 4.571623770283101 1 2 0
1348 306 1 -1.1128 -6.167721965395202 -5.833480912385238 6.157126688839415 2 2 0
790 120 1 -1.1128 -11.55400828289542 -6.765737126694695 4.530897586377436 1 1 0
803 124 2 0.5564 -5.899566905978592 -3.956438575486701 8.448802352739687 0 2 0
2323 631 1 -1.1128 -4.252716581164667 -7.514309384659895 8.595478933450423 2 2 0
1437 335 2 0.5564 -5.124753233447979 -2.767614599817426 2.3550195984768374 1 1 0
657 75 2 0.5564 -2.5658134486541275 -2.7397842751584935 5.309416430173213 -1 2 0
1350 306 2 0.5564 -6.54618362023653 -6.41155075463085 6.819573034185765 2 2 0
1659 409 2 0.5564 -7.146833985743291 -7.812540715228881 3.5064107763907586 0 1 0
1290 286 2 0.5564 -1.5225879391043293 -8.176446376824133 4.3400415213957855 1 2 0
2298 622 2 0.5564 -8.378129375030978 -9.160022165443792 7.592915447068024 1 2 0
1657 409 1 -1.1128 -8.006362127592608 -8.225238337515531 3.5908064702517555 0 1 0
1648 406 1 -1.1128 -1.37958094067087 -8.143457320133587 8.910767103797598 2 2 0
947 172 2 0.5564 -4.576033017849916 -1.276021031203061 0.7153028008120279 0 2 0
2297 622 2 0.5564 -7.397699817622719 -9.719074891074516 8.601933906353931 1 2 0
1249 273 1 -1.1128 -9.818000048668411 -5.4533933458586885 8.397301238015798 2 2 0
1781 450 2 0.5564 -2.2798072178417983 -5.153357387611788 1.4746363596324792 0 2 0
1712 427 2 0.5564 -5.462253468790176 -7.0744811373684025 4.967628940356769 1 2 0
806 125 2 0.5564 -11.640221089440454 -0.5053870953958763 4.151330461367044 1 1 0
273 0 5 0 -8.550807310453768 -1.1142391933800653 13.4428497585867 2 1 0
2286 618 2 0.5564 -6.324465685828264 -0.6261916735360418 7.749763469124704 2 2 0
1250 273 2 0.5564 -10.246988773613092 -6.181302722412673 7.947471145267012 2 2 0
2001 523 2 0.5564 -7.838700842882076 -7.7171932375792744 8.776919543434381 1 2 0
2038 536 1 -1.1128 -10.632882257735512 -7.6442766541333524 2.229299023293305 0 2 0
1839 469 2 0.5564 -8.801493719088851 -5.010751746024893 3.304698297037356 2 2 0
431 0 5 0 -2.4296146472906592 -5.165261695671032 15.484477272782543 2 2 0
2242 604 1 -1.1128 -10.87380095001526 -10.493850685355905 8.46624971580466 2 2 0
1667 412 2 0.5564 -9.995165410996085 -11.025448505372186 4.977856664524725 2 2 0
1141 237 1 -1.1128 -9.13146392389273 -9.373069308118849 5.861800365969444 1 2 0
1837 469 1 -1.1128 -8.382974752522506 -5.328739097566319 4.104674393130317 2 2 0
1066 212 1 -1.1128 -3.211574053073751 -9.99143182023249 6.326367291138867 1 2 0
1288 286 1 -1.1128 -1.2892760777506405 -8.179096536745549 5.268367162822422 1 2 0
1842 470 2 0.5564 -2.6681795322972692 -7.2373670740661655 2.439326276889869 1 2 0
1261 277 1 -1.1128 -10.971428852187355 -1.1480875580563137 5.805474135140321 1 1 0
791 120 2 0.5564 -11.793569743832936 -5.870350153850991 4.7699034443480395 1 1 0
401 0 5 0 -0.5498929942363824 -9.191205545070817 13.437042735399558 2 2 0
1143 237 2 0.5564 -8.83975659823087 -9.012008437209895 5.024677613938783 1 2 0
311 0 5 0 -2.500806607655713 -1.0952118383360343 15.547989951776312 2 1 0
1323 297 2 0.5564 -0.7369965193269477 -1.7622698486024313 5.374769533681707 0 2 0
494 21 2 0.5564 -8.50827237291968 -5.016043264355726 0.9960175328470169 -1 2 0
391 0 5 0 -10.53650654537994 -9.137513753409772 11.37490411146672 2 2 0
430 0 5 0 -4.527121747250493 -3.204961510102262 15.550033156219222 2 2 0
1886 485 2 0.5564 -7.18038500788432 -9.91950838690983 2.5002683501621834 1 2 0
1658 409 2 0.5564 -8.62234008623216 -7.563098749932535 3.2771566304761075 0 1 0
1289 286 2 0.5564 -2.0241709745683507 -8.615541693279786 5.699273748315622 1 2 0
1713 427 2 0.5564 -5.411753157798749 -8.586310492638434 5.028613798681709 1 2 0
411 0 5 0 -2.480926249874237 -5.045915169328023 11.49711305794626 2 2 0
1840 470 1 -1.1128 -2.731671078437355 -8.084043150910404 2.881299426017471 1 2 0
395 0 5 0 -6.680804410585383 -9.19793858928398 11.307412510534462 2 2 0
1235 268 2 0.5564 -0.9315901501161229 -1.7241696819190446 0.22822333023036387 -1 2 0
679 83 1 -1.1128 -10.574114160458937 -7.522932770157758 6.9112937904183624 2 1 0
1262 277 2 0.5564 -11.388966727704606 -0.8766923699599888 6.622932486566492 1 1 0
2231 600 2 0.5564 -11.905124489368145 -9.01131883603884 1.4217437469565626 1 3 0
1709 426 2 0.5564 -4.01548645535616 -11.90883454100124 3.6182136755631165 1 2 0
1263 277 2 0.5564 -10.267742345161402 -0.5128661387007631 5.672995923002843 1 1 0
399 0 5 0 -2.519756912817342 -9.13961639852301 11.291873234315261 2 2 0
680 83 2 0.5564 -11.0433573340132 -7.162596943435911 6.158831462085172 2 1 0
1360 310 1 -1.1128 -11.514429027448971 -0.5907198164845727 8.537017259191893 2 2 0
2341 637 1 -1.1128 -1.5593305563485833 -10.770337308494769 2.473079046154455 1 3 0
681 83 2 0.5564 -11.263115390510231 -7.850721034836226 7.489278036913972 2 1 0
1666 412 1 -1.1128 -10.148667559904393 -11.967757151613817 4.9091267354538575 2 2 0
1650 406 2 0.5564 -0.8513980344621678 -8.615854354546341 8.267259228643983 2 2 0
397 0 5 0 -4.570861958991507 -9.16215031440289 13.432116689375151 2 2 0
396 0 5 0 -4.564585350819483 -7.117207431519566 11.397617955580008 2 2 0
1566 378 2 0.5564 -2.6402093797068877 -10.410893354016576 8.029100465948416 2 1 0
1234 268 1 -1.1128 -1.3755918524137367 -1.2914997505198125 0.9575327185104813 -1 2 0
413 0 5 0 -0.4814412782873396 -5.039177473437372 13.454138976325659 2 2 0
1564 378 1 -1.1128 -2.4442786727149595 -10.62185463754768 8.941975048008972 2 1 0
2284 618 1 -1.1128 -5.886561428410719 -0.8193601233439395 6.920812737541572 2 2 0
1814 461 2 0.5564 -0.11074538072471106 -11.09388951294496 6.344923378873869 2 2 0
277 0 5 0 -4.5501282952840505 -1.1095014608071725 13.473765163572699 2 1 0
2244 604 2 0.5564 -11.526782132918187 -9.806028281196818 8.59566161242745 2 2 0
869 146 2 0.5564 -10.394476844805443 -11.621034804212684 1.9250879311334586 0 2 0
1902 490 2 0.5564 -7.210794861567998 -9.952411421282683 5.6881335418632775 1 2 0
423 0 5 0 -6.6069140926969485 -9.203181181449088 15.458618567416726 2 2 0
281 0 5 0 -0.459946758241466 -1.0769057556444306 13.552402376995332 2 1 0
1900 490 1 -1.1128 -6.274123351148965 -10.080154116965012 5.838335705487773 1 2 0
398 0 5 0 -6.512753196250421 -7.099639012457205 13.45207420581896 2 2 0
2342 637 2 0.5564 -2.077777270376854 -11.239603100595833 3.126707525491447 1 3 0
868 146 1 -1.1128 -11.280903429472461 -11.71492577470306 2.2738991080051076 0 2 0
410 0 5 0 -6.54578785586509 -3.119149111362276 13.443388047580505 2 2 0
428 0 5 0 -8.550103485668616 -3.0188800441848187 15.458583177015289 2 2 0
402 0 5 0 -2.4807269605149673 -7.158887202796944 13.406565782047805 2 2 0
386 0 5 0 -6.552819403753164 -11.145442828000728 13.385359722722422 2 2 0
404 0 5 0 -8.644274839071828 -3.0837616827603833 11.426070284363623 2 2 0
384 0 5 0 -4.558497553390456 -11.010321896693764 11.338971258705762 2 2 0
408 0 5 0 -4.5652355274402066 -3.120942330952299 11.432825031745892 2 2 0
309 0 5 0 -6.565943834484476 -1.1825095980060427 15.53794371135282 2 1 0
412 0 5 0 -0.39098287868028603 -3.1000842822913595 11.469210212148113 2 2 0
420 0 5 0 -0.6084438715902474 -11.213275181581388 15.427507722312852 2 2 0
380 0 5 0 -8.568691269093954 -11.169213954509361 11.283689646514857 2 2 0