LAMMPS data file via write_data, version 2 Aug 2023, timestep = 200000, units = real

1650 atoms
5 atom types
792 bonds
1 bond types
396 angles
1 angle types

-12.120000000000001 12.120000000000001 xlo xhi
-12.120000000000001 12.120000000000001 ylo yhi
-28.28 28.28 zlo zhi

Masses

1 15.9994
2 1.008
3 28.99
4 35.453
5 26.9815

Pair Coeffs # lj/cut/tip4p/long

1 0.185199 3.1589
2 0 0
3 0.0469 2.4299
4 0.15 4.0447
5 11.697 2.574

Bond Coeffs # harmonic

1 0 0.9572

Angle Coeffs # harmonic

1 0 104.52

Atoms # full

46 0 5 0 -11.386822335938085 -10.132933686150679 -15.526157277861413 -1 -1 0
47 0 5 0 -9.468761548006968 12.091877673449368 -15.50392965796021 -1 -2 0
59 0 5 0 -9.40918744101778 -8.109119767465419 -15.67475280074125 -1 -1 0
48 0 5 0 -7.428710727629105 -10.053119948594352 -15.544163610411665 -1 -1 0
49 0 5 0 -5.494600427196217 -8.117377156318804 -15.482143961451406 -2 -1 0
37 0 5 0 -5.415361835233332 12.102992162708055 -15.571761230715198 -2 -2 0
58 0 5 0 -11.434599156410709 -6.121746115211263 -15.658650043426702 -1 -1 0
60 0 5 0 -7.40695846197368 -6.09210386181464 -15.662135768717206 -1 -1 0
38 0 5 0 -3.3900467286289233 -10.154966654707486 -15.437501159782062 -2 -1 0
39 0 5 0 -1.4686834064858743 12.012901761920936 -15.510835757511229 -2 -2 0
51 0 5 0 -1.3653573197696547 -8.11751603186605 -15.577586989107852 -2 -1 0
40 0 5 0 0.6803879708230096 -10.058862596562149 -15.407943531075981 -2 -1 0
41 0 5 0 2.632966054174096 12.117826559828607 -15.469925041694143 -2 -2 0
53 0 5 0 2.7171870028313223 -8.054201220063755 -15.55609621888737 -2 -1 0
50 0 5 0 -3.4884383356388264 -6.063896159196338 -15.479964858206625 -2 -1 0
52 0 5 0 0.6961508913511647 -6.082376000023076 -15.501735154480585 -2 -1 0
45 0 5 0 10.791692057156087 -12.066008203072 -15.484245621489064 -2 -1 0
57 0 5 0 10.801882754933974 -8.180388428637803 -15.432192951941943 -2 -1 0
44 0 5 0 8.6889683121916 -10.04337306123916 -15.550116575894462 -2 -1 0
43 0 5 0 6.6806483969637 -12.081880354432704 -15.438205846703665 -2 -1 0
42 0 5 0 4.697518964418157 -10.084849999279998 -15.45968970427181 -2 -1 0
55 0 5 0 6.680638034762267 -8.06667748403581 -15.533108374478262 -2 -1 0
56 0 5 0 8.691051642218648 -6.119206561252858 -15.435173616495707 -2 -1 0
54 0 5 0 4.713190494913387 -6.13370792123221 -15.409646439909809 -2 -1 0
70 0 5 0 -11.519903318964664 -2.1323973606788655 -15.480653157912302 -1 -1 0
71 0 5 0 -9.47729740983513 -4.0496587725067705 -15.443112014085896 -1 -1 0
11 0 5 0 -9.53338100442527 -0.05310585341444568 -15.485858798915492 -1 -2 0
72 0 5 0 -7.404385376317973 -1.9202483414855287 -15.510599631825295 -1 -1 0
61 0 5 0 -5.448551221388982 -4.023946334714728 -15.570637482583239 -2 -1 0
1 0 5 0 -5.374127848508463 -0.042152881370395044 -15.462228781346152 -2 -2 0
10 0 5 0 -11.496373111413492 2.062466738048488 -15.375237931390737 -1 -2 0
12 0 5 0 -7.462912370680883 1.969332704330437 -15.437914777200238 -1 -2 0
62 0 5 0 -3.3998125483624118 -2.100377500285366 -15.491070063543976 -2 -1 0
63 0 5 0 -1.4119677573142755 -4.05805117896423 -15.55586604787874 -2 -1 0
3 0 5 0 -1.3896522368241957 0.04061928051264676 -15.596058141939526 -2 -2 0
64 0 5 0 0.7120550170837614 -2.0063683829706793 -15.422463698075541 -2 -1 0
65 0 5 0 2.677940844574851 -4.067090054365018 -15.367376721600609 -2 -1 0
5 0 5 0 2.7309979837576135 0.008171438797821442 -15.499379922785227 -2 -2 0
2 0 5 0 -3.461205654524959 2.021354089443551 -15.513123703480472 -2 -2 0
4 0 5 0 0.7054318930564185 2.028748911433743 -15.431090957932414 -2 -2 0
9 0 5 0 10.735339157716941 -0.005408479448723172 -15.492922650797247 -2 -2 0
69 0 5 0 10.719750913872362 -4.168898559873236 -15.499720641640229 -2 -1 0
68 0 5 0 8.721642220829361 -2.0688774806150834 -15.594554683979448 -2 -1 0
67 0 5 0 6.69434118336532 -3.99196743880062 -15.454834372929708 -2 -1 0
66 0 5 0 4.672591870598161 -2.0353666435109914 -15.4610621510453 -2 -1 0
7 0 5 0 6.764150911763849 0.034085451294317046 -15.498221346965943 -2 -2 0
8 0 5 0 8.79026770010153 2.061535830893861 -15.49659138154171 -2 -2 0
6 0 5 0 4.660576292234179 1.9452025545957834 -15.585722655432889 -2 -2 0
34 0 5 0 -11.505527384473806 10.10571959545739 -15.520334862218913 -1 -2 0
36 0 5 0 -7.429363422107889 10.04055055782864 -15.48608781654904 -1 -2 0
35 0 5 0 -9.480417589845752 8.091082452193323 -15.529579686336401 -1 -2 0
22 0 5 0 -11.569334380934015 6.1373278049899 -15.505711032712691 -1 -2 0
23 0 5 0 -9.485657044665004 4.093857322634467 -15.548572626245841 -1 -2 0
24 0 5 0 -7.425538198687419 6.017001994476498 -15.546841684285408 -1 -2 0
13 0 5 0 -5.474023892967207 3.962087759576939 -15.542430669600652 -2 -2 0
25 0 5 0 -5.42304615747767 7.988859961366412 -15.486251081117516 -2 -2 0
26 0 5 0 -3.4841340788110813 10.073686482585803 -15.56539690353036 -2 -2 0
28 0 5 0 0.6093605127867603 10.017426012741169 -15.551603443461847 -2 -2 0
27 0 5 0 -1.45731674909426 8.05079191480731 -15.555354085206709 -2 -2 0
14 0 5 0 -3.4108049582486606 5.961612427325449 -15.524904630353792 -2 -2 0
15 0 5 0 -1.3369672805255863 3.901062542869318 -15.531314729204114 -2 -2 0
16 0 5 0 0.67657583955934 6.023477760047202 -15.653706078904595 -2 -2 0
29 0 5 0 2.641236979327471 8.01818646720778 -15.472755112662243 -2 -2 0
17 0 5 0 2.6884587137089584 3.9924426212733475 -15.501347927269691 -2 -2 0
32 0 5 0 8.673683034925626 10.117476818908544 -15.511148779432599 -2 -2 0
30 0 5 0 4.657265108581077 10.063278116229675 -15.475593349822496 -2 -2 0
21 0 5 0 10.754972261744474 4.0838185217209855 -15.469012310302112 -2 -2 0
33 0 5 0 10.65971131784484 8.135028466600126 -15.565287488851995 -2 -2 0
20 0 5 0 8.646321556152275 6.114769652334231 -15.609575470881735 -2 -2 0
31 0 5 0 6.623626030566324 8.02807689732398 -15.48666202854367 -2 -2 0
19 0 5 0 6.725937694345133 4.076878153409705 -15.51267295486555 -2 -2 0
18 0 5 0 4.619590977679628 6.010781610547224 -15.543843716848643 -2 -2 0
788 119 2 0.5564 -11.189739833586783 -10.774760890521675 -3.1162418596494725 0 -1 0
1408 326 1 -1.1128 -9.29209375071208 -9.896662980351351 -9.104188842946316 0 -1 0
1410 326 2 0.5564 -9.578778140009717 -10.788649117544413 -8.908214183326328 0 -1 0
1409 326 2 0.5564 -10.097015888302199 -9.378712841505036 -9.09637901310399 0 -1 0
117 0 5 0 -11.479774266523608 12.110437084148712 -13.477491381467457 -1 -2 0
190 0 5 0 -11.403867789412837 -10.155137893229572 -11.421920377344033 -1 -1 0
1441 337 1 -1.1128 -10.583475990519796 -8.854701329270702 -6.160774946954765 0 -1 0
510 26 2 0.5564 -7.47531609242931 -9.936074572946342 -9.041489832588724 -2 -1 0
1182 250 2 0.5564 11.931840892932513 -7.824956086268122 -9.087616376040755 -2 -1 0
1443 337 2 0.5564 -10.834580045637694 -8.346260104760969 -6.931921213765346 0 -1 0
1442 337 2 0.5564 -10.47019167599503 -9.747028441468927 -6.48811424416225 0 -1 0
508 26 1 -1.1128 -6.58684618003138 -9.89127856792563 -8.68815438231122 -2 -1 0
120 0 5 0 -9.484917937080727 -10.067812551063101 -13.471632300858762 -1 -1 0
191 0 5 0 -9.352247757059596 12.095461226363895 -11.58254525559267 -1 -2 0
1141 237 1 -1.1128 -8.561429547284284 -12.110124926376999 -5.933348223120422 0 -1 0
129 0 5 0 -11.44730401354141 -8.129094182973757 -13.486743734109204 -1 -1 0
203 0 5 0 -9.491235190924783 -8.114830077663637 -11.436363691368742 -1 -1 0
1142 237 2 0.5564 -9.085578670802482 11.875279040029225 -6.692743583407758 0 -2 0
1143 237 2 0.5564 -7.789936285606427 11.56473142607241 -5.973878387239698 0 -2 0
1939 503 1 -1.1128 -10.406989240140001 -9.958400929659817 -1.8380902445703706 1 -1 0
1940 503 2 0.5564 -9.648127280430819 -9.447870929184752 -1.5557439805200366 1 -1 0
1180 250 1 -1.1128 -11.937995981356888 -8.687083552731774 -8.898019233487105 -1 -1 0
1014 194 2 0.5564 -7.914745570726983 -10.889502278738965 -1.8966867391567153 0 -1 0
1108 226 1 -1.1128 -8.041821108808094 -7.974589677318275 -1.9825411906395352 -2 -1 0
1941 503 2 0.5564 -10.644757549585732 -10.479187169777562 -1.0709660040073306 1 -1 0
192 0 5 0 -7.533228369065467 -10.161607161430961 -11.485490330387034 -1 -1 0
131 0 5 0 -7.477891131454977 -8.104574519119025 -13.525752155168087 -1 -1 0
119 0 5 0 -7.377737476315552 12.112021344111335 -13.595585632775352 -1 -2 0
1110 226 2 0.5564 -8.145204388345125 -8.032073831156335 -2.932404005392423 -2 -1 0
1109 226 2 0.5564 -7.103684601975131 -8.09506896439981 -1.8355158273270626 -2 -1 0
448 6 1 -1.1128 -6.770413120338424 -7.263395193338803 -8.090070047099347 -1 -1 0
2161 577 1 -1.1128 -8.310508078414143 -7.686448469461734 -4.649898587204256 0 -2 0
2162 577 2 0.5564 -9.12395356363233 -8.034598128552087 -5.01504223602339 0 -2 0
450 6 2 0.5564 -6.305785053887962 -8.07231528956009 -8.30454794733193 -1 -1 0
2163 577 2 0.5564 -7.6185889173061465 -8.113952576861049 -5.154596597878141 0 -2 0
449 6 2 0.5564 -7.689857019978724 -7.459927841456045 -8.269596836316888 -1 -1 0
1952 507 2 0.5564 -11.629430040430162 -7.181002910215713 -2.6426556831845405 0 -1 0
1953 507 2 0.5564 -11.324022009967829 -8.66326507257483 -2.6036637051821643 0 -1 0
509 26 2 0.5564 -6.703351581673521 -9.937550655013627 -7.739198464499643 -2 -1 0
181 0 5 0 -5.48230751196346 -12.080494876039522 -11.450978152295887 -2 -1 0
110 0 5 0 -5.526197946689182 -10.099137774861184 -13.453341546432272 -2 -1 0
193 0 5 0 -5.37766579556037 -8.046406898208453 -11.521893024461715 -2 -1 0
1712 427 2 0.5564 -10.123695156832976 -6.083276477437537 -8.986493847162988 -1 -1 0
1711 427 1 -1.1128 -9.39163979077216 -6.395018349239873 -8.454379819805567 -1 -1 0
1828 466 1 -1.1128 -5.29985798496779 -8.223212389112922 -1.6505902353218151 0 -1 0
468 12 2 0.5564 -6.313990905061568 -10.13563572776146 -5.445974694366742 0 -1 0
467 12 2 0.5564 -7.544033875653696 -10.659637748508992 -6.156123728966784 0 -1 0
466 12 1 -1.1128 -7.0054013390055845 -9.874930936850562 -6.054429333111457 0 -1 0
2095 555 1 -1.1128 -5.399603067872433 -6.125502304356299 -3.9370707445182815 -1 -1 0
1551 373 2 0.5564 -10.170204663571578 -5.901080942383131 -6.867699353593804 -1 -1 0
202 0 5 0 -11.444813937805279 -6.035418400234292 -11.501020509507349 -1 -1 0
132 0 5 0 -9.442686850164467 -6.150599871798878 -13.615970016147541 -1 -1 0
204 0 5 0 -7.473557096823229 -6.081307658466054 -11.546886540951029 -1 -1 0
122 0 5 0 -5.47547732842196 -6.042197039358705 -13.55693787803822 -2 -1 0
2098 556 1 -1.1128 -9.519299209291365 -4.138487142871903 -3.945349021340497 1 -1 0
1713 427 2 0.5564 -8.687755540513503 -5.768990922970223 -8.624282380877759 -1 -1 0
2100 556 2 0.5564 -9.900000000366633 -4.339501427455132 -4.8002721375533 1 -1 0
2099 556 2 0.5564 -9.779404442840427 -3.2334516561590068 -3.773623686756262 1 -1 0
2381 0 3 1 -5.223323802755085 -5.729354461945829 -8.95432459200653 -2 -1 0
2097 555 2 0.5564 -4.866417092839755 -6.05598138051277 -4.728974464253925 -1 -1 0
1181 250 2 0.5564 11.666377123802222 -9.097507913447247 -8.311706259499537 -2 -1 0
1549 373 1 -1.1128 -10.657976512097694 -5.309507152409747 -6.294679962996032 -1 -1 0
2377 0 3 1 -7.542634094328221 -5.115125293880588 -4.035911360450715 0 -1 0
1660 410 1 -1.1128 -3.9733385040343805 -5.747238861355603 -6.209283607456423 -1 -1 0
2096 555 2 0.5564 -5.018453005172588 -5.4870352906356805 -3.3343130679161814 -1 -1 0
656 75 2 0.5564 -7.226791215622374 -4.6645564577114875 -1.3185418701534612 0 -1 0
1550 373 2 0.5564 -10.931109488860212 -4.592295998180333 -6.866727314194519 -1 -1 0
1982 517 2 0.5564 -10.398559604232478 -3.541738450463223 -0.5168079015879359 0 -1 0
2336 635 2 0.5564 -3.6282884008176453 -7.482503772939978 -7.750976029687772 -1 -1 0
2335 635 1 -1.1128 -4.015972710377557 -7.734893705137763 -8.58896859992881 -1 -1 0
787 119 1 -1.1128 -11.76297474634479 -11.037569341472958 -3.83635700474225 0 -1 0
707 92 2 0.5564 11.71042464085252 -6.027114952521703 -9.02665417084864 -2 -1 0
1190 253 2 0.5564 12.111890813669424 -6.454545320179464 -5.6787483310816755 -2 -1 0
655 75 1 -1.1128 -6.724939300683703 -4.299547783478752 -2.0473392240428856 0 -1 0
738 102 2 0.5564 -3.183453389867508 -6.283440116737295 -0.7322212503509605 -2 -1 0
1723 431 1 -1.1128 3.7003309417385597 -10.957642412253296 -0.031839836137652566 0 0 0
1012 194 1 -1.1128 -7.29803107746516 -11.402217218195137 -2.4191992711432624 0 -1 0
1013 194 2 0.5564 -7.851156159926855 -11.914644983793941 -3.0088622496158566 0 -1 0
723 97 2 0.5564 -5.836176238720069 -10.995764363753413 -3.3385590094647086 -1 -1 0
1983 517 2 0.5564 -10.091417314576447 -5.01545189519556 -0.6772030717290685 0 -1 0
736 102 1 -1.1128 -2.93693318364962 -6.978042810500142 -0.121495347439098 -2 -1 0
2256 608 2 0.5564 -5.6037257695048615 -10.373861995122237 -0.22639836484553727 1 -1 0
1981 517 1 -1.1128 -10.805712059642872 -4.407494938203518 -0.48640706236179415 0 -1 0
1829 466 2 0.5564 -4.647849988903985 -7.864251979405706 -1.048706152394495 0 -1 0
1830 466 2 0.5564 -5.207484456723649 -7.698055339479243 -2.4455176564660484 0 -1 0
1661 410 2 0.5564 -3.097374518111422 -5.848824058914503 -5.8369910624278 -1 -1 0
761 110 2 0.5564 -2.811398247968379 -4.325381921001029 -1.2671137357306768 0 -1 0
534 34 2 0.5564 -2.325357132332226 -8.232748648027664 -3.7820373550858424 0 -2 0
1211 260 2 0.5564 -2.3181413625968608 -10.581224937546724 -7.247124835494159 -1 -1 0
1212 260 2 0.5564 -2.8359541226610108 -11.009248744785195 -8.603797574447201 -1 -1 0
1210 260 1 -1.1128 -2.5166359234977183 -10.246492445076512 -8.121645094174985 -1 -1 0
109 0 5 0 -3.4416399818778345 12.102251631307057 -13.490966770990607 -2 -2 0
182 0 5 0 -3.4245960544692418 -10.219280515095958 -11.474983259337348 -2 -1 0
717 95 2 0.5564 -2.006751977429798 -10.405376610243387 -4.869907263320456 -1 -2 0
183 0 5 0 -1.3852830235283333 12.06602546378074 -11.523707861209727 -2 -2 0
112 0 5 0 -1.3588461236630751 -10.06180209980082 -13.426861745934648 -2 -1 0
712 94 1 -1.1128 2.047604308610052 -8.48381232005456 -3.632478164225261 0 -2 0
713 94 2 0.5564 1.4277582496563987 -8.302805191403824 -2.925895658618908 0 -2 0
121 0 5 0 -3.4036317565107455 -8.095434478187727 -13.485412372391671 -2 -1 0
715 95 1 -1.1128 -1.7200618961977268 -10.778279882405299 -5.7035637010025955 -1 -2 0
195 0 5 0 -1.4284780525374972 -8.036292647455248 -11.564401206598424 -2 -1 0
716 95 2 0.5564 -1.0098823192601483 -10.204698935129185 -5.991456641189244 -1 -2 0
1922 497 2 0.5564 0.1811469958539026 -10.619733001289056 -8.318896216205903 -1 -1 0
111 0 5 0 0.6148242751178605 12.116725714678237 -13.520990998151936 -2 -2 0
184 0 5 0 0.6087389813862649 -10.16754522874058 -11.473208476836888 -2 -1 0
123 0 5 0 0.6882328668856581 -8.090307456175765 -13.411390020526909 -2 -1 0
661 77 1 -1.1128 0.29442804433787884 -7.610525449775607 -1.0063607781551382 -1 -1 0
663 77 2 0.5564 -0.21239115669133188 -8.422168236794661 -1.0308985038986407 -1 -1 0
1338 302 2 0.5564 -12.019067150095806 2.5221710678511022 -1.0701267262507819 0 -3 0
2002 524 1 -1.1128 3.328124291227316 12.034854110160307 -5.49302003365237 1 -2 0
1184 251 2 0.5564 0.6225696353558212 -7.648970167631455 -6.786718433753585 -2 -1 0
1183 251 1 -1.1128 0.18688797146302677 -8.06292596909071 -6.041699177215636 -2 -1 0
714 94 2 0.5564 2.528156275858089 -9.257434610961193 -3.33784321722647 0 -2 0
1921 497 1 -1.1128 1.0336289009965096 -10.689413444867482 -8.748606743796032 -1 -1 0
1923 497 2 0.5564 1.3240736857649607 -11.582236008416878 -8.562214555813982 -1 -1 0
1185 251 2 0.5564 0.9026854933639465 -8.362944304195494 -5.481470595845997 -2 -1 0
1030 200 1 -1.1128 3.429694593633207 -10.721630232742884 -3.194830647740682 -2 -1 0
1691 420 2 0.5564 8.857733158215465 4.43070332340461 -1.242159707038685 0 -1 0
2337 635 2 0.5564 -3.8853608576892187 -8.68185655184139 -8.638309556785293 -1 -1 0
532 34 1 -1.1128 -2.26790505382354 -9.171410146484975 -3.6035785137117564 0 -2 0
1032 200 2 0.5564 3.2205217927239103 -11.174863633422731 -4.0115670459096995 -2 -1 0
1644 404 2 0.5564 1.8912896192633557 -4.2992013904911355 -0.7799529036863209 0 -1 0
1897 489 1 -1.1128 -0.842264884174116 -10.309812853867225 -1.1077328326251041 0 -1 0
533 34 2 0.5564 -2.191759105501036 -9.230417258569684 -2.6512383042739827 0 -2 0
1008 192 2 0.5564 0.16880399837718985 -7.591487073625911 -8.870026324386739 -1 -2 0
1006 192 1 -1.1128 1.056954613245781 -7.880438611972665 -9.079615219561658 -1 -2 0
185 0 5 0 2.614083595322424 -12.118879360591135 -11.397141099171595 -2 -1 0
1899 489 2 0.5564 -0.022428550980561984 -10.587631597443526 -1.5162860389722081 0 -1 0
1007 192 2 0.5564 0.9501718236821202 -8.780572032939602 -9.38716917146751 -1 -2 0
114 0 5 0 2.673970055230923 -10.110605599761623 -13.433185384906674 -2 -1 0
197 0 5 0 2.653769865939905 -8.161962355657572 -11.409953987550615 -2 -1 0
1647 405 2 0.5564 -1.9105598406111295 -5.482963305448756 -9.117352416728387 -1 -1 0
1645 405 1 -1.1128 -1.258271835027666 -5.9997468741143525 -8.644397875965474 -1 -1 0
620 63 2 0.5564 7.074195849302188 -10.093065679446154 -0.855378708241838 1 -1 0
1158 242 2 0.5564 -0.37419494992187263 -5.830477989776437 -1.949596562578392 -1 -1 0
194 0 5 0 -3.4249127417371845 -6.104248673772017 -11.479831227796282 -2 -1 0
124 0 5 0 -1.3577234428317322 -5.984101825061397 -13.482938007894457 -2 -1 0
196 0 5 0 0.6230211139007653 -6.102451688662503 -11.450523769731292 -2 -1 0
126 0 5 0 2.7041958956378593 -6.095407231008918 -13.346458991086823 -2 -1 0
978 182 2 0.5564 3.148927426190362 -10.869735423616493 -6.6241178732670924 -1 -1 0
977 182 2 0.5564 2.3542500277093135 -10.204818007925748 -7.727871869792363 -1 -1 0
1646 405 2 0.5564 -1.3859501698835248 -5.764371417368876 -7.725415459349719 -1 -1 0
869 146 2 0.5564 2.3433915110378933 -6.377483206856302 -9.013703419683955 -2 -2 0
868 146 1 -1.1128 2.95904177782202 -5.6763415796215115 -8.80014328889838 -2 -2 0
760 110 1 -1.1128 -3.5401059353764714 -4.521712589559326 -1.8559014849656796 0 -1 0
1156 242 1 -1.1128 -0.5757928822792149 -5.275179126468415 -2.702745361267621 -1 -1 0
1290 286 2 0.5564 0.2450039563648849 -4.690520804441779 -9.130522116511527 -1 -1 0
870 146 2 0.5564 2.446271048935288 -4.872559446425776 -8.885190958229835 -2 -2 0
1263 277 2 0.5564 3.4047708678045554 -7.129234145714992 -3.7715625131788566 -1 -1 0
976 182 1 -1.1128 3.0095210771975562 -10.02568454273038 -7.053509048428897 -1 -1 0
1031 200 2 0.5564 4.386270181723888 -10.718260178752438 -3.1604262515260277 -2 -1 0
1242 270 2 0.5564 -1.4876588167357119 -6.279871189393963 -3.922098499163906 -1 -1 0
1240 270 1 -1.1128 -1.8801044556555553 -6.758501398198759 -4.652256566851689 -1 -1 0
1241 270 2 0.5564 -1.1482650506106253 -7.228137287357488 -5.05236357432432 -1 -1 0
1157 242 2 0.5564 0.24330679656555676 -5.233499795088051 -3.1962738456654463 -1 -1 0
497 22 2 0.5564 2.620112983918714 -5.097557922865957 -3.6393350774471607 -1 -2 0
496 22 1 -1.1128 1.915859993028157 -4.449614573779208 -3.6600196372030283 -1 -2 0
1419 329 2 0.5564 -3.6081143299567424 -11.947260818963253 -1.65214062531435 0 -1 0
1418 329 2 0.5564 -2.1301151425578295 -11.61995487295241 -1.6690188403356938 0 -1 0
1662 410 2 0.5564 -3.869256780076199 -5.082099612157061 -6.88971745725169 -1 -1 0
1398 322 2 0.5564 -9.299142032452627 9.962677254954356 -0.10145689643589109 0 -2 0
762 110 2 0.5564 -4.241752845852489 -3.9351727698125423 -1.5732449210655262 0 -1 0
1724 431 2 0.5564 4.542177974875667 -10.887343483698725 -0.48193356276324756 0 0 0
1722 430 2 0.5564 2.11697341017942 -11.472041159802231 -2.0507405301797945 0 0 0
1162 244 1 -1.1128 5.80578043508019 -8.048539976238446 -1.6637602815443742 -2 -1 0
1951 507 1 -1.1128 -11.530273306903686 -7.948498515570066 -3.2059941342669176 0 -1 0
1164 244 2 0.5564 6.513290602552541 -7.5082325570007376 -1.312006688275385 -2 -1 0
1044 204 2 0.5564 9.163179602403915 -4.474763760464228 -0.5935063088147375 -2 -2 0
1085 218 2 0.5564 6.334996080374022 10.512580711824995 -8.546907701507731 -2 -2 0
1261 277 1 -1.1128 3.933076486282253 -6.331114826962125 -3.760086968485757 -1 -1 0
706 92 1 -1.1128 10.918694460225584 -6.505492046382396 -8.780583261267092 -2 -1 0
1352 307 2 0.5564 4.976007920939108 -5.061117091747843 -1.988301637172114 1 -2 0
2384 0 3 1 11.620512715636876 -9.164254053184035 -5.092511963672865 -2 -1 0
631 67 1 -1.1128 6.317472322606758 -9.895402073747315 -3.680219141889297 0 -1 0
632 67 2 0.5564 6.597824093718167 -10.096826091948545 -2.7874348178199564 0 -1 0
1189 253 1 -1.1128 11.354467100321106 -6.956459898772076 -5.979786540963021 -2 -1 0
789 119 2 0.5564 11.917083636702184 -11.717413762159733 -3.4615125798454645 -1 -1 0
1191 253 2 0.5564 10.63380505813727 -6.326476738554934 -5.980006258670615 -2 -1 0
1163 244 2 0.5564 6.042559012059774 -8.186689274920116 -2.5808661352090447 -2 -1 0
633 67 2 0.5564 6.68426941659147 -10.601692515647558 -4.212051637880213 0 -1 0
189 0 5 0 10.729955081637172 -12.014709119421775 -11.365960858330043 -2 -1 0
2400 0 4 -1 10.442632028065525 -10.178088604116219 -6.952201604662813 -2 -1 0
118 0 5 0 10.756138188731885 -10.111721467787596 -13.479743169200608 -2 -1 0
201 0 5 0 10.79772640170052 -8.078746517391764 -11.346168424728658 -2 -1 0
1536 368 2 0.5564 9.34616338042858 -11.351426663414657 -1.2109764741177824 -1 -1 0
1535 368 2 0.5564 9.559998519602999 -10.7620886028834 -2.588964539902128 -1 -1 0
1534 368 1 -1.1128 9.735407502034565 -11.54315744948816 -2.0641823897874794 -1 -1 0
1133 234 2 0.5564 8.135272994934592 -7.592830369796209 -9.685131266829199 -1 -1 0
1134 234 2 0.5564 9.3069082567395 -7.07285343599447 -8.879656225137547 -1 -1 0
127 0 5 0 8.762141148925876 -8.082931395597111 -13.435086658261854 -2 -1 0
115 0 5 0 8.661357643746989 -12.010338633317087 -13.428859184762722 -2 -1 0
188 0 5 0 8.673317994089468 -10.049275909553197 -11.414947301510267 -2 -1 0
1132 234 1 -1.1128 8.400639334930677 -7.368550313079327 -8.793217014041796 -1 -1 0
996 188 2 0.5564 11.48173082262726 -11.924832717600168 -7.432727842235463 -2 -1 0
1292 287 2 0.5564 8.643703553272221 -9.236381797610054 -6.4076837967109945 -1 -1 0
981 183 2 0.5564 7.763092758979317 -11.46864166197532 -7.9005520966077505 -1 -1 0
979 183 1 -1.1128 8.120345192828502 -11.103003020454317 -8.7098181302951 -1 -1 0
980 183 2 0.5564 9.038895492649656 -10.925032361210096 -8.507768174000038 -1 -1 0
1291 287 1 -1.1128 7.8028774606480065 -8.996247768049221 -6.018350911952841 -1 -1 0
801 123 2 0.5564 5.044228656563699 -9.92679477822986 -8.741363335492933 -2 -1 0
187 0 5 0 6.655069106982222 -12.108841008532247 -11.375586537101077 -2 -1 0
116 0 5 0 6.695198514645777 -10.06187043692041 -13.444011191927503 -2 -1 0
1293 287 2 0.5564 7.280434368913415 -9.797070993810872 -6.062692343308725 -1 -1 0
799 123 1 -1.1128 5.809505274713464 -9.365264729913978 -8.61780528569498 -2 -1 0
113 0 5 0 4.591619452303423 -12.09819924984041 -13.355265447273228 -2 -1 0
186 0 5 0 4.681525823081903 -10.048524152933735 -11.460976747676037 -2 -1 0
846 138 2 0.5564 6.343383152936189 11.845423279076538 -6.505595691098749 -1 -2 0
844 138 1 -1.1128 6.8459727460943025 -11.67714530143789 -6.1196841221467455 -1 -1 0
845 138 2 0.5564 7.617045967322955 -12.100275639401339 -5.7420080589995495 -1 -1 0
199 0 5 0 6.732970651197087 -7.97469169532459 -11.380977217054891 -2 -1 0
125 0 5 0 4.703590148112469 -8.087071625078776 -13.470617636341158 -2 -1 0
676 82 1 -1.1128 9.602634551837783 -9.223681608163462 -3.744304003491882 -1 -1 0
678 82 2 0.5564 9.459829498031548 -8.439657562474174 -3.214071941088086 -1 -1 0
2379 0 3 1 6.433044831822042 -7.529083853931684 -7.083745537559619 -2 -2 0
1325 298 2 0.5564 3.9619834521266766 -8.391307572816523 -6.681535955310771 -2 -2 0
677 82 2 0.5564 8.920250533991217 -9.187654801354213 -4.414593357865093 -1 -1 0
800 123 2 0.5564 6.542626976054638 -9.881618161120144 -8.952685873200474 -2 -1 0
708 92 2 0.5564 11.114275398234577 -6.864094554877152 -7.914912671476383 -2 -1 0
2033 534 2 0.5564 8.290239154209832 -6.2939774036184355 -2.2391628234783196 -1 -1 0
1324 298 1 -1.1128 4.188650761582592 -7.461360390665012 -6.688756183035632 -2 -2 0
1326 298 2 0.5564 3.6088841401000726 -7.078137382149989 -7.346968371419126 -2 -2 0
2032 534 1 -1.1128 8.955480527655908 -6.521458195363928 -2.8887303014596863 -1 -1 0
2034 534 2 0.5564 9.752146711797504 -6.092200738011759 -2.5768122250319725 -1 -1 0
1262 277 2 0.5564 4.634342185868196 -6.4984353566363735 -4.389739928721512 -1 -1 0
1451 340 2 0.5564 -11.958036587049486 -5.559079286977153 -1.5105629089747672 1 -1 0
1450 340 1 -1.1128 11.460189644558707 -6.0322370678331145 -1.6410995763659129 0 -1 0
1167 245 2 0.5564 7.90032323179175 -6.487074433502585 -4.6574320875461765 -2 -1 0
1165 245 1 -1.1128 7.266523883984861 -6.129281795491013 -5.279134634020781 -2 -1 0
130 0 5 0 10.795306262915656 -6.1450615988990185 -13.455873415247098 -2 -1 0
200 0 5 0 8.855937299005392 -6.009521195916159 -11.429077038467778 -2 -1 0
128 0 5 0 6.702167434490704 -6.055337758189069 -13.406430226909643 -2 -1 0
198 0 5 0 4.703513264731019 -6.14580302198953 -11.367856281918487 -2 -1 0
1166 245 2 0.5564 7.789171473296918 -5.585439279020957 -5.868462346665109 -2 -1 0
681 83 2 0.5564 7.9913082723279025 -5.142986089551238 -8.881462157653466 -2 -1 0
725 98 2 0.5564 4.935367557423438 -5.6639975044887905 -8.559851407496973 -2 -1 0
724 98 1 -1.1128 5.823783163586775 -5.515904736330743 -8.23578465721147 -2 -1 0
726 98 2 0.5564 5.856933651593699 -4.5782299936383355 -8.046313361846865 -2 -1 0
1043 204 2 0.5564 10.529098852715395 -4.701634079016144 -1.205624390506143 -2 -2 0
584 51 2 0.5564 9.298019008569426 -4.758899611227317 -7.383597849610265 -1 -2 0
1353 307 2 0.5564 6.1053278569566425 -4.545749903243798 -1.1217423233185662 1 -2 0
583 51 1 -1.1128 9.529394114069813 -4.932677311812671 -6.471184178054941 -1 -2 0
1059 209 2 0.5564 6.7241966019829205 -4.259626999605651 -4.498149685987667 -1 -1 0
2402 0 4 -1 7.605154873208594 -6.022534544316476 -0.2946455587251094 0 -2 0
2184 584 2 0.5564 5.2833208285719495 -0.3483296976402666 -0.2903122956971736 -1 -2 0
2183 584 2 0.5564 5.985743944851554 0.9763651463092314 -0.08132343450650792 -1 -2 0
1942 504 1 -1.1128 -4.7234644130929855 -1.8516017835452891 -1.2620847193010243 0 -1 0
1580 383 2 0.5564 -7.585139380812987 0.6355761812300484 -1.4002350864686819 0 -1 0
657 75 2 0.5564 -7.046836111240958 -3.4023539710513746 -2.134848353028398 0 -1 0
1926 498 2 0.5564 -9.15094334418781 -1.4342689793231618 -3.4173705055404633 0 -1 0
1925 498 2 0.5564 -10.527639461545878 -0.9754033344784309 -2.986037378858946 0 -1 0
2394 0 4 -1 -7.312394144628536 -1.3985707948525383 -2.3102907447018874 0 -1 0
1670 413 2 0.5564 -10.78953254464516 -3.8219440129814624 -9.179863315021382 0 -1 0
1669 413 1 -1.1128 -11.54448837079717 -4.351100429376105 -8.9224379357609 0 -1 0
141 0 5 0 -11.52180284514168 -4.172783194831249 -13.586190114902166 -1 -1 0
214 0 5 0 -11.443179471468666 -1.9575375521285194 -11.473391690568675 -1 -1 0
1122 230 2 0.5564 -6.533242044305643 -2.927442206842166 -5.897880044788295 0 -1 0
819 129 2 0.5564 -9.167138923253768 -0.6649410640133253 -5.947549173808145 -1 -1 0
1120 230 1 -1.1128 -7.149738575403472 -3.6493595905205534 -5.775407408042533 0 -1 0
1121 230 2 0.5564 -7.132047812968516 -4.123685248894745 -6.606631864934505 0 -1 0
817 129 1 -1.1128 -8.94104827481995 -1.305498865184227 -6.621938353797557 -1 -1 0
215 0 5 0 -9.465468198627752 -3.9904511351697187 -11.492834056336818 -1 -1 0
144 0 5 0 -9.503510151865777 -2.0508895200742634 -13.453088750341438 -1 -1 0
1036 202 1 -1.1128 -9.724869425778712 -1.9642451452583871 -9.06593228429901 -1 -2 0
1038 202 2 0.5564 -9.458627118414881 -1.6981063778488623 -8.185865751065425 -1 -2 0
582 50 2 0.5564 -10.643067072460795 0.9429036984903795 -8.810916172158159 -1 -2 0
81 0 5 0 -11.52509888256222 -0.01575177402229867 -13.418681977312803 -1 -2 0
155 0 5 0 -9.538357160073062 0.07646796055644933 -11.463790014282262 -1 -2 0
1037 202 2 0.5564 -9.06468885676429 -2.603705312517281 -9.333296726373995 -1 -2 0
818 129 2 0.5564 -8.84998215216187 -2.1317128046018423 -6.1472703750812885 -1 -1 0
831 133 2 0.5564 -9.113431337150438 1.982752542180181 -4.69913351927639 -1 -1 0
959 176 2 0.5564 -8.00408178266963 -0.4409942901363114 -9.417243573423582 -1 -1 0
1924 498 1 -1.1128 -10.065132797153767 -1.413694638441461 -3.700335054379678 0 -1 0
143 0 5 0 -7.459789324577562 -4.066844347600166 -13.499740401513536 -1 -1 0
216 0 5 0 -7.442788026360346 -1.9277027074528061 -11.52135244331093 -1 -1 0
83 0 5 0 -7.529156717952913 -0.011964183941027627 -13.396020668133982 -1 -2 0
1745 438 2 0.5564 -7.462361995186244 3.783678314022026 -3.0813916791868676 -1 -2 0
1744 438 1 -1.1128 -8.183040617076035 3.258337495283326 -3.4290589344265676 -1 -2 0
1149 239 2 0.5564 -9.16131266999211 -1.7175433738742123 -1.3153768773095191 1 -1 0
2393 0 4 -1 -7.154266115814211 -4.06096885019095 -8.673299371046312 -2 -1 0
958 176 1 -1.1128 -7.225716065750545 -0.43930335426950906 -8.860128464775437 -1 -1 0
960 176 2 0.5564 -7.550952143352838 -0.6800645427720294 -7.992667902907883 -1 -1 0
580 50 1 -1.1128 -11.402172567043738 0.38710272289087755 -8.987204901492472 -1 -2 0
581 50 2 0.5564 -11.051001316254508 -0.3451006461274992 -9.493947269577996 -1 -2 0
1504 358 1 -1.1128 -5.832044191170304 0.32100578339553604 -4.2746364225969655 0 -1 0
829 133 1 -1.1128 -9.510258220543719 1.225421817201799 -5.129494104096738 -1 -1 0
1505 358 2 0.5564 -6.029409272174502 -0.16827277674355887 -3.475958580935717 0 -1 0
1239 269 2 0.5564 -4.780464384306685 -1.1941119420955275 -5.110642112087087 -1 -1 0
205 0 5 0 -5.442405211372298 -4.038221181669607 -11.409024007102971 -2 -1 0
145 0 5 0 -5.467890987140085 0.0014427621300981508 -11.52736487529819 -2 -2 0
830 133 2 0.5564 -9.638280425408036 0.589298250392076 -4.425797330609934 -1 -1 0
1944 504 2 0.5564 -5.594847172391645 -1.8078469977140905 -1.655797458543475 0 -1 0
1238 269 2 0.5564 -4.343801620770858 -2.620290121195374 -5.3699479948065285 -1 -1 0
1237 269 1 -1.1128 -4.9071306866106434 -1.9268077298975455 -5.713423331597533 -1 -1 0
134 0 5 0 -5.364123642037569 -2.0028055214889813 -13.475752998299969 -2 -1 0
1708 426 1 -1.1128 -11.869386426551692 -0.624037130610936 -1.7779843531719226 1 -1 0
1709 426 2 0.5564 -11.547384290280236 -1.211879385851341 -1.0946189700846327 1 -1 0